# vtk DataFile Version 4.2
vtk output
ASCII
DATASET RECTILINEAR_GRID
FIELD FieldData 6
base_index 1 3 int
6 10 0 
avtOriginalBounds 1 6 double
0.46875 5.78125 0.390625 3.671875 0 0 
MeshName 1 1 string
amr_mesh

CYCLE 1 1 int
8960 
TIME 1 1 double
0.0001301041685 
VisItExpressions 1 0 string

DIMENSIONS 69 85 1
X_COORDINATES 69 float
0.46875 0.546875 0.625 0.703125 0.78125 0.859375 0.9375 1.01562 1.09375 
1.17188 1.25 1.32812 1.40625 1.48438 1.5625 1.64062 1.71875 1.79688 
1.875 1.95312 2.03125 2.10938 2.1875 2.26562 2.34375 2.42188 2.5 
2.57812 2.65625 2.73438 2.8125 2.89062 2.96875 3.04688 3.125 3.20312 
3.28125 3.35938 3.4375 3.51562 3.59375 3.67188 3.75 3.82812 3.90625 
3.98438 4.0625 4.14062 4.21875 4.29688 4.375 4.45312 4.53125 4.60938 
4.6875 4.76562 4.84375 4.92188 5 5.07812 5.15625 5.23438 5.3125 
5.39062 5.46875 5.54688 5.625 5.70312 5.78125 
Y_COORDINATES 85 float
0.390625 0.429688 0.46875 0.507812 0.546875 0.585938 0.625 0.664062 0.703125 
0.742188 0.78125 0.820312 0.859375 0.898438 0.9375 0.976562 1.01562 1.05469 
1.09375 1.13281 1.17188 1.21094 1.25 1.28906 1.32812 1.36719 1.40625 
1.44531 1.48438 1.52344 1.5625 1.60156 1.64062 1.67969 1.71875 1.75781 
1.79688 1.83594 1.875 1.91406 1.95312 1.99219 2.03125 2.07031 2.10938 
2.14844 2.1875 2.22656 2.26562 2.30469 2.34375 2.38281 2.42188 2.46094 
2.5 2.53906 2.57812 2.61719 2.65625 2.69531 2.73438 2.77344 2.8125 
2.85156 2.89062 2.92969 2.96875 3.00781 3.04688 3.08594 3.125 3.16406 
3.20312 3.24219 3.28125 3.32031 3.35938 3.39844 3.4375 3.47656 3.51562 
3.55469 3.59375 3.63281 3.67188 
Z_COORDINATES 1 float
0 
CELL_DATA 5712
SCALARS P float
LOOKUP_TABLE default
-11280.1 -11811.3 -12481.2 -13306.4 -14308.4 -15457.9 -16736.3 -17993.7 -19120.2 
-19891.1 -20177.6 -20023.7 -19430.7 -18609.8 -17653.3 -16725.9 -15964.4 -15290.1 
-14707 -14013.3 -13178.5 -12098.4 -10770.7 -9151.96 -7227.73 -4945 -2272.57 
839.655 4386.06 8294.05 12525.4 16826.1 21046.6 24728.8 27611.6 29474.5 
30638.8 31717.1 33449.7 36045.4 37845 38581.8 38425.9 37130.2 34558.4 
32261.9 29926.8 28802.4 29071.3 28766.3 26863.1 23195.8 18392.4 13977.8 
10428.9 8050.56 6478.61 4834.49 3070.21 1344.95 -241.079 -1508.4 -2517.76 
-3175.46 -3584.11 -3738.55 -3723.72 -3625.61 -12239.4 -12809.1 -13533.7 -14443 
-15560.6 -16879.8 -18368.1 -19888 -21256.3 -22193 -22530.3 -22285.6 -21558.7 
-20529.2 -19364.4 -18290.5 -17436.1 -16772 -16194.8 -15521.7 -14651.6 -13506.1 
-12071.6 -10327.2 -8246.45 -5774.11 -2853.1 569.893 4498.77 8879.46 13639.1 
18564.4 23400.5 27643.9 30820.4 32602.7 33330.1 33980.4 36185 39653.9 
41980.3 42757.3 42648.2 40662 37360.9 34334.2 31474.2 30507.5 31611.8 
32273.3 30209.9 25627.4 19777 14222.7 10126.3 7807.31 6447.24 5001.23 
3085.27 1086.61 -659.016 -2076.43 -3162.49 -3885.24 -4272.72 -4381.85 -4297.87 
-4124.91 -13167.8 -13768.5 -14542.8 -15529.7 -16765.4 -18263.4 -19995.2 -21826.7 
-23503.3 -24656.7 -25036.3 -24683.2 -23771.6 -22492.2 -21070.2 -19803.4 -18875.2 
-18237.5 -17716.9 -17085 -16199.3 -14989.3 -13451.5 -11586.2 -9361.78 -6714.01 
-3555.84 177.226 4501.21 9370.84 14705.6 20317.5 25887.7 30813 34348.7 
35850.7 35680.5 35550.5 38498.2 43521.1 46417.9 46975 46593.6 44412.3 
40514.3 36533.8 32481.3 31671.2 34239.9 36403.7 34124.8 28233.5 20938.7 
13925.2 9099.02 7070.53 6235.47 5053.84 2957.88 679.616 -1225.43 -2768.13 
-3947.08 -4706.91 -5065.94 -5098.62 -4921.66 -4658.58 -14061.7 -14686 -15501.1 
-16557.7 -17909.1 -19594 -21604.8 -23812.8 -25892.3 -27325.4 -27738.6 -27232.8 
-26089.4 -24503 -22747.2 -21245.5 -20251.9 -19687.3 -19276.7 -18719.8 -17833.1 
-16557 -14914 -12931.7 -10580.9 -7775.45 -4396.26 -357.295 4371.26 9746.08 
15695.7 22072.7 28526.6 34316.9 38333.8 39355.3 37441.9 36208.3 40949.5 
47827.1 51021.1 50459.7 50624.7 48258.8 43963.4 38009.9 32579.2 31868.4 
36922.5 41540.1 38822.2 31049.8 21875.8 12890.5 7068.11 5742.52 5874.46 
4944.77 2570.91 52.0491 -1949.81 -3599.75 -4879.93 -5673.11 -5977.08 -5899.81 
-5598.53 -5222.24 -14919.2 -15557.8 -16402.3 -17516.6 -18975.2 -20851.1 -23175.6 
-25844.7 -28459.7 -30268.5 -30691.5 -29962.2 -28536.2 -26573.4 -24377.6 -22576.5 
-21537.7 -21114.4 -20886.4 -20446.6 -19570.7 -18219.6 -16461.2 -14365.3 -11908.1 
-8971.77 -5392.41 -1054.86 4086.74 9980.48 16576.6 23808.4 31330.8 38254 
43013.2 43450.3 38837.2 34711.5 43924.1 53797.6 55563.9 53190.2 54990.8 
51919.4 47233.7 40473 31446.2 30263.7 39460.6 48458.7 44569.7 33894.3 
22307.5 10587.4 3863.86 3775.02 5283.72 4721.34 1687.95 -905.516 -2834.26 
-4570.07 -5982.93 -6809.03 -7022.95 -6789.51 -6325.34 -5814.56 -15738.6 -16380.6 
-17240.2 -18395.1 -19945.2 -22007.1 -24676.2 -27911.5 -31255.8 -33589.4 -33964.5 
-32896.3 -31143.9 -28725.4 -25931.9 -23738 -22691.1 -22513.9 -22565.9 -22294.1 
-21433.7 -19985 -18089.6 -15882.7 -13346.7 -10315.9 -6565.18 -1939.38 3624.82 
10054.2 17309.2 25478.4 34294 42709.1 48702.1 48828.4 40224.9 30790.4 
47084.2 62958.2 60934.1 54006.3 56317.7 54182.4 50936.9 37531.3 25559.2 
25784.1 41161.9 58377.1 51762.1 35712.7 20679.6 4293.79 -3312.27 673.623 
4663.28 4096.45 25.9138 -2261.28 -3832.93 -5669.38 -7293.09 -8158.91 -8227.9 
-7771.97 -7097.49 -6422.59 -16519.1 -17152 -18009.4 -19182.4 -20798.2 -23027.2 
-26059.3 -29985.8 -34350.9 -37452.1 -37649.2 -36046.7 -33957.2 -31003.7 -27366.8 
-24640.4 -23655 -23883.7 -24347.7 -24302.5 -23451.2 -21862.4 -19792.2 -17476.5 
-14900.9 -11825 -7940.59 -3039.93 2966.64 9943.4 17826.7 27006 37353.3 
47740.5 55814 56319.6 41955.5 19881.2 49757.7 75480 68714 54864.3 
54018.9 54925.5 52222.5 29637.3 11184.2 16317.2 38231.7 69989.9 61905.3 
41734.8 25167.4 -9933.7 -16701.6 -4291.3 3887.75 3225.66 -2227.78 -3645.38 
-4771.18 -6874.16 -8878.85 -9792.93 -9626.06 -8851.22 -7904.64 -7042.4 -17261 
-17871.1 -18706.1 -19868.5 -21512.5 -23869.1 -27256 -32008.5 -37843.5 -42131 
-41866.4 -39389.7 -37044.6 -33495.7 -28613.5 -25147.4 -24351.5 -25229.2 -26280.5 
-26525.9 -25659.2 -23858.7 -21551.8 -19129.9 -16571.5 -13518.4 -9549.05 -4392.03 
2092.98 9637.59 18041.3 28234.3 40400.7 53362.3 64718.6 67461.8 41293.8 
-13681.9 48302 87552.7 79356.2 57067.9 54547.2 56517.3 59245.8 32093.7 
-1821.25 -6452.25 -8111.24 39437.6 65516.2 59803 49193.3 2012.71 -21357 
-10172.6 4045.26 2407.04 -4284.24 -4776.19 -5494.94 -8168.52 -10863.6 -11822.2 
-11259 -10026.9 -8728.87 -7647.76 -17965.7 -18538.5 -19328.7 -20446.1 -22067.9 
-24485.9 -28171.1 -33862 -41873.7 -48109.3 -46767.8 -42798.9 -40511.8 -36368.3 
-29564.4 -25028.9 -24679.5 -26575.2 -28450.1 -29043 -28104.9 -25978.9 -23335.6 
-20813 -18362.9 -15421.6 -11427.1 -6043.83 982.699 9151.62 17787 28925.3 
43280.2 59358.3 75767.2 83746.8 38168 -90116.3 19713.6 100791 95943 
70351.8 59216.2 56868.7 59789.6 35307.6 2301.67 -16010.7 -56671.5 -8020.73 
58294.6 69096.2 74212.1 39428.7 -1111.37 -6535.34 5989.04 2685.8 -4910.15 
-5133.48 -5919.36 -9647.84 -13492.8 -14432.6 -13176.2 -11278.5 -9546.29 -8226.33 
-18635.9 -19157.2 -19878.9 -20912.9 -22450.3 -24833.1 -28679.3 -35323.6 -46646.8 
-56293.7 -52568.5 -45966.5 -44557.7 -39987.7 -30007.4 -23952.4 -24475.6 -27993.9 
-30991.2 -31964.2 -30853.7 -28224.2 -25081.7 -22471.5 -20270.3 -17555.7 -13608.2 
-8076.03 -345.882 8533.88 16917.7 28608.8 45712.2 65170.5 88219.9 104798 
62980.2 -44397.2 74885.9 128474 115118 88496.2 65865.4 58749.3 49144.8 
25772.4 1285.82 -14273.5 -43262.1 -22263.5 33542.1 61399.5 84013.9 82682.8 
52076.2 17159 12200.1 4069.83 -4508.12 -5539.73 -6526.33 -11655.9 -17314.5 
-17984.3 -15430.9 -12570.3 -10316.5 -8736.77 -19276.2 -19732.1 -20362.3 -21273.1 
-22656.7 -24881.6 -28648.2 -35998.8 -52406.9 -68772.4 -59610.4 -48134.3 -49931.8 
-44927.4 -29670 -21257.3 -23603.3 -29629.7 -34138.1 -35440 -33978.2 -30585.3 
-26681.2 -24018.4 -22335.8 -19918 -16122.4 -10589.5 -1883.84 7993.06 15096.9 
27035.7 46741.6 69609.9 98297.5 119615 107326 121444 218877 176421 
129120 97459.3 67930.9 64653.1 40617.3 15917.8 -3546.96 -9299.17 -26709.8 
-24204.5 6358.78 53552.9 92687.9 114982 97696.2 40501.1 18621.8 6761.27 
-4195.51 -6536.02 -7734.49 -14918.1 -23249.3 -23102.3 -18065.6 -13829.2 -10981.4 
-9161.36 -19891.5 -20271.1 -20789 -21539.1 -22702.4 -24629.1 -28006.2 -35184.5 
-60241.4 -87886.4 -67510.4 -46707.8 -56960.1 -52553.5 -28069.4 -15928 -21976.5 
-31853.9 -38266.6 -39671.8 -37559.5 -33059.5 -27945.8 -25293.6 -24659.6 -22497.9 
-19059.1 -13794.7 -3650.34 8123.1 11725.5 23108.2 45701.7 71854.1 102563 
125479 125539 188669 270428 203897 137198 82558.2 68905.4 70990.4 
31040.2 5179.49 -4261.91 464.484 -18533.8 -34806.2 -14389.5 47564.6 101783 
107509 72038.3 26013.1 20626.6 11430.1 -3957.57 -8864.92 -10446 -20119.6 
-31688.4 -30115.3 -21082.9 -14916.7 -11467.8 -9462.81 -20489.4 -20784.5 -21173.5 
-21731 -22615.5 -24147 -26849.9 -32250.6 -59125.9 -73266.8 -42426.1 -41521.8 
-72721.4 -63814.8 -22051.3 -6532.15 -19182.4 -35281.7 -43863.7 -44868.1 -41680.5 
-35649.3 -28560.4 -26072 -27513.5 -25605.9 -22417.7 -18219.6 -5897.84 9564.11 
6025.25 13092.1 34029 51097.4 110464 136853 144466 187874 256711 
207864 149314 98782.3 90632.6 78334.6 18856.7 -9295.92 -7109.2 16263.4 
-10674.3 -48859.9 -35544.6 45438 119929 88632.9 21040.3 1132.75 16595.5 
8466.5 -6861.03 -14972.5 -16633.2 -27590.2 -41056.2 -38137.2 -24125.3 -15632.7 
-11689.4 -9613.2 -21077.7 -21284.8 -21534.4 -21875.1 -22439.2 -23573.1 -25749 
-31786.2 -42350.3 -18585.7 -688.199 -37892.1 -82701.2 -59013.4 -2112.92 7918.88 
-15883.1 -41176.7 -51967.7 -51199.5 -46549.6 -38513.8 -28010.6 -25741.3 -31227.6 
-29466.9 -26209 -25648.5 -9078.59 13398.8 5166.72 1000.23 9093.54 9988.09 
107758 142323 166310 202086 278941 253186 228287 196706 110177 
72125.4 -1671.25 -28150 -2955.31 45630.6 11.9132 -72442.5 -66442.9 45531.2 
168644 120457 26376 -1198.56 4791.36 54.5567 -14939.8 -27675.3 -28657.4 
-37090.7 -49301.6 -44768 -26295 -15691.6 -11563 -9583.12 -21665.6 -21785.7 
-21893.5 -22002.2 -22207.5 -22929.6 -25315.6 -38181.3 -42243 -7159.48 3226.9 
-36358.5 -68440.5 -38510.5 12503.5 17766.4 -14124.5 -52929.4 -63516.9 -58776.2 
-52312.9 -41849.9 -25430.4 -23074.5 -34702.8 -34369.3 -31328.5 -37769.6 -18102.7 
12922.7 2016.76 1221.28 2673.17 -3353.4 91582.4 140313 166112 197502 
287236 292940 279969 253045 99721.1 63823.6 9627.82 -5810 43694.1 
97080 18743.1 -112076 -119830 31378.3 196745 171166 55702.1 4202.44 
-2223.07 -7335.17 -25324.5 -46258.7 -47134 -47649.9 -54046.2 -46727.9 -26284.6 
-14860 -11030.7 -9367.67 -22261.7 -22302.9 -22275.5 -22148.9 -21937.2 -21943.1 
-23853.7 -39244.1 -53130.8 -31549.5 -16617.6 -35335.6 -50000.1 -28118.3 4529.89 
9426.28 -26201 -67313.5 -74001.4 -67676 -59569.5 -46749.9 -19372.6 -16499.2 
-39638.9 -42433.9 -42179.2 -48746.3 -32938 -27253.7 -18727.4 5512.66 12234 
17031.9 90631.2 138972 162889 182178 272901 303543 264485 222649 
110243 61211.8 12345.8 29006.9 96318.3 137844 39310.1 -162069 -191550 
678.626 209097 213970 79638.4 4824.49 -8384.18 -13939.4 -37162.4 -67843.8 
-70370.7 -57722.7 -53005.9 -42071.8 -23045 -13134.1 -10093 -8998.48 -22875.4 
-22851.4 -22707.8 -22363.6 -21706.1 -20657.5 -19385.8 -27415.7 -49100.6 -44718.9 
-29329.1 -35589.9 -41296.1 -27901.5 -8965.55 -8430.67 -38254.8 -67039.6 -71119.4 
-65929.2 -63086.6 -58679.6 -7894.83 -4048.35 -48943.3 -53405.6 -56834.1 -53624.3 
-46545.9 -67537.6 -44587.9 9272.25 20922.9 35997.3 93232.2 144001 177129 
186166 266040 313524 233661 192174 179463 59060.6 -56299.7 19514.4 
137203 187816 49350.2 -259103 -303883 -20990.5 271787 275880 83332.7 
-9365.85 -16837.8 -20589.5 -52215.2 -96858.8 -97848 -66109.4 -46186.6 -31886 
-17261.6 -10471 -8893.91 -8531.64 -23513.6 -23445.7 -23218.5 -22705.9 -21671.3 
-19602.3 -15080.5 -13686.6 -31632 -41858.5 -35204.3 -36284.6 -37420.3 -29345.4 
-18901.7 -20756.7 -39706.7 -57502.9 -56512 -55034.5 -64402.2 -86566.1 -40966.6 
-24103.7 -49498.6 -52463.6 -57049.6 -50790 -50903.9 -72480.8 -49011.8 3367.17 
24469.1 49235 95093.2 152682 206491 220664 281680 348876 213251 
162373 268667 106025 -9835.51 201337 360056 300342 10118.6 -467641 
-503444 3145.77 439338 381907 60531.3 -44363.3 -26978 -25755.2 -68793.4 
-129484 -126221 -72459 -36442.2 -19406.2 -10556.3 -7354.47 -7616.18 -8052 
-24182.8 -24096.9 -23831.1 -23233.3 -21990.9 -19378.6 -14040.6 -8618.21 -18698.7 
-37098.7 -37846.6 -36859.4 -36312.3 -31314.2 -25897 -28385.9 -40774.8 -52386.1 
-51424.4 -53058.4 -66803.9 -109282 -113565 -81252.4 -54390.6 -50144.6 -56372.1 
-48893.7 -53652.5 -63799.4 -46141.9 -8431.04 22586.9 53798.6 94406.1 162398 
240620 261990 309865 437407 215284 98955.6 270371 235641 440310 
750586 696879 373059 -65923.9 -575250 -506336 209257 776980 551937 
-17917.4 -108982 -33521.1 -25517.1 -80472.5 -154287 -148160 -76256.1 -27236.4 
-7994.03 -4329.16 -4683.24 -6495.38 -7659.96 -24885.8 -24811.8 -24559.8 -23978.6 
-22744.3 -20150.2 -14072.6 -5575.83 -22024.6 -42742.2 -41025 -38129 -36655.6 
-33539 -31027.4 -33787.7 -42642.1 -51433.4 -54353.9 -58584.5 -70813.2 -107732 
-132048 -102912 -63904.2 -61232.8 -62733.9 -55087.1 -59222.4 -61308.7 -49529.3 
-20344.5 14326 49576.3 89523.5 169877 277521 295001 319553 607104 
207861 -281120 -119803 116977 676705 989420 759560 370970 -29075.5 
-359959 -149960 760989 1.31175e+06 605200 -243997 -214367 -23160.8 -15135.5 
-83286.8 -164275 -157083 -75509.8 -19866.1 -83.6509 68.9414 -2959.97 -5724.14 
-7448.01 -25623.5 -25591.3 -25406.5 -24944.1 -23947.8 -21923.2 -17059.6 -15341.4 
-38743 -53568.8 -44327.5 -39629.8 -37678.5 -35728.2 -34947.2 -37885.9 -44810.7 
-52219.8 -57130.9 -63172.9 -75431.9 -97867.3 -113359 -97533.4 -72489.9 -65761.3 
-67202.1 -64807.9 -66376.6 -66833.5 -57595.4 -34497.3 -850.191 37741.1 79413.5 
183210 353410 324462 260722 953764 595798 -458762 -433753 -67226.1 
498855 775299 636984 367500 90258.6 -70634 173130 929899 944469 
-90094.7 -689523 -352433 30339.8 8284.37 -80281.7 -154480 -146176 -69029.8 
-14376.1 3685.45 1967.66 -2156.87 -5435.67 -7490.59 -26393.2 -26430.7 -26361.3 
-26105.6 -25528.7 -24531.5 -24138.4 -33961.3 -56639.8 -58500.5 -45992.6 -40931.1 
-38909.4 -37749.1 -38036.8 -41124.9 -47025.1 -53702.2 -59602.4 -66577.3 -77716.5 
-93194.9 -103109 -94526.4 -79027.2 -72730.4 -75025.6 -73602.2 -74515.1 -75028.7 
-69661.1 -52167.4 -21268.1 17872.9 63137.6 183844 466305 358648 -61461.5 
1.32485e+06 1.30182e+06 -260184 -231087 21673.6 413824 610872 545399 366108 
180280 97785.7 274942 609628 206473 -579242 -937035 -424173 179231 
41497.5 -81542.4 -129945 -118263 -56353.5 -10033 4098.84 1933.88 -2296.57 
-5672.74 -7828.81 -27189.5 -27320.2 -27404.1 -27415 -27335.7 -27430.8 -30664.9 
-42766.2 -56556.7 -54694.4 -45971.2 -41889.4 -40106.5 -39517.7 -40515.1 -43760 
-49136.2 -55424.6 -61760.2 -69069.8 -78855.3 -90335.6 -97324 -93053.8 -83987.3 
-79434.4 -80799.6 -81319 -82944.6 -84713.4 -83755.5 -72530.2 -45969.2 -8228.03 
29459.8 133915 667271 495719 -1.24752e+06 1.12306e+06 2.36633e+06 76101.1 47484.1 
145508 377653 511632 482772 365890 244036 200087 304480 436114 
193376 -171069 -198446 445118 640220 65807.5 -102342 -112591 -88367.5 
-41477.4 -7532.35 2468.43 581.144 -3254.52 -6427.04 -8488.51 -28005.3 -28246.3 
-28508.3 -28816.1 -29225.2 -30207.1 -34805.2 -43710.1 -49454.5 -48647.4 -44785.6 
-42532.7 -41137.4 -40978.2 -42494.4 -45925 -51070.4 -57149.7 -63632 -70916.8 
-79591.4 -88640.2 -94122.6 -92541.7 -87674.7 -85187.5 -86788.5 -88681.1 -91662.7 
-95485.8 -99349 -95116.8 -74416.1 -36214.8 -20270.2 -43507.8 1.01556e+06 2.36072e+06 
-1.20208e+06 344335 3.31127e+06 570296 232165 236549 365523 453271 441770 
367379 288769 263872 324891 390743 301995 299514 1.01408e+06 1.76468e+06 
999794 -56878.6 -164570 -106239 -64333.4 -28642.5 -6279.71 67.6539 -1598.19 
-4890.19 -7661.91 -9462.03 -28831.6 -29193.8 -29646.8 -30261.2 -31143.9 -32780.3 
-37142.4 -41435.3 -39448.8 -40753.9 -43330 -43124 -41957 -42090.5 -44040.8 
-47700.2 -52792.5 -58769.4 -65257.5 -72358.9 -80173.5 -87718.5 -92466 -92631.5 
-90544.5 -89903.2 -92568.2 -95820 -100367 -107077 -116435 -120751 -107491 
-58516.5 -60584.8 -483438 871479 6.1698e+06 111837 -3.20767e+06 2.01415e+06 674187 
332033 295391 363663 419708 416408 370044 320097 305717 342566 
384322 377210 529012 1.19639e+06 1.32875e+06 181344 -491661 -280800 -100572 
-43862.4 -18004.6 -5332.27 -2463.08 -4285.18 -7059.4 -9324.12 -10742.6 -29659 
-30146.2 -30792.2 -31712.1 -33066.4 -35342.1 -39347.7 -42465.2 -35698.9 -36138.6 
-42425.5 -44091.8 -42520.9 -42799.7 -45184.9 -49135 -54294.7 -60241.3 -66673.7 
-73541.2 -80711.7 -87329 -91745 -93079.1 -92881.6 -93789.2 -97892.8 -102859 
-108615 -118122 -134044 -151663 -149059 -67913.8 959.674 -1.31569e+06 -3.87654e+06 
4.25993e+06 1.7317e+06 -5.16771e+06 210766 483332 355710 327192 364811 401028 
401756 373655 342486 334383 358093 389425 414101 533962 763983 
442201 -533600 -850509 -366920 -68663.8 -19104.7 -7590.64 -4458.08 -5087.62 
-7392.93 -9690.43 -11366 -12300.5 -30477.9 -31087.4 -31918 -33126.2 -34931 
-37757.1 -42192.1 -47450.9 -44567.5 -43827.7 -46979.5 -46068.3 -42676.5 -43014.7 
-45947 -50268.6 -55585.2 -61559.1 -67914.7 -74548.8 -81249.7 -87300.9 -91595 
-93720.5 -94835.7 -97123.3 -103271 -109619 -116101 -127603 -150365 -188543 
-207783 -73982.5 390795 -916845 -8.80039e+06 2.47054e+06 9.10713e+06 -1.04687e+06 129284 
387601 354594 342171 366225 391139 394297 378004 359040 354717 
370772 395468 426622 507361 597300 434063 -339793 -677262 -198853 
26600.6 13523.3 3269.33 -3903.14 -8135.08 -10950.7 -12744 -13739.5 -14127.5 
-31278.6 -32002.5 -33000.1 -34456.7 -36682.8 -40113.7 -45566.4 -55560.2 -71458.7 
-76538.8 -63625.1 -48987.3 -41935.5 -42599.1 -46356.1 -51141 -56683.6 -62738.4 
-69011.8 -75431.2 -81798.9 -87515.9 -91800.4 -94466.9 -96391.7 -99732.4 -108269 
-115632 -122376 -133911 -162141 -228390 -303822 -175501 1.24212e+06 6.44287e+06 
103946 4.31423e+06 1.11674e+07 1.81924e+06 420999 366687 348248 347741 367316 
386661 391631 382989 371719 369422 380259 398992 426182 477418 
509903 379165 -200976 -119048 326697 150313 43724.6 12826 -4605.46 
-12154 -15145.7 -16210.5 -16412.6 -16146.3 -32054.2 -32878.5 -34018.5 -35665.9 
-38106.4 -41963.4 -48966.1 -61645.7 -87642 -104038 -84780.3 -50434.5 -39249.3 
-41420.4 -46489.1 -51802.4 -57615.7 -63812 -69994.1 -76214.1 -82355.7 -87895.3 
-92233.4 -95284.3 -97733.3 -101756 -111435 -119094 -125031 -135812 -168177 
-263720 -458694 -628482 847463 1.53891e+07 8.80396e+06 -5.3082e+06 724692 870311 
377670 336081 336941 348158 368236 385722 392271 388507 381841 
380224 386869 399553 419231 449884 459616 358868 122000 572429 
642980 85738.8 54087.3 18865.9 -7628.64 -17680.9 -20152.9 -20094.8 -19329.7 
-18373.8 -32796.4 -33706 -34957.6 -36738.7 -39304.5 -43379.6 -50493.6 -62415.1 
-81319.2 -95007.3 -74675.3 -33828.2 -33950.5 -39502.1 -46535.3 -52310.5 -58406.4 
-64833.1 -70889.3 -76906.8 -82911.4 -88390.3 -92830.1 -96204.6 -99086.1 -104178 
-115598 -121407 -122749 -132543 -164780 -268556 -580426 -1.54944e+06 -4.61731e+06 
7.21171e+06 4.87286e+06 -1.03757e+07 -4.86753e+06 -217125 220147 294407 322643 346104 
369500 387358 395292 394481 390220 388126 390633 396333 406474 
424678 436398 422948 573276 1.06384e+06 599576 -53852.5 82768 23048.2 
-14730.1 -25258.3 -25991.2 -24331.5 -22436.7 -20728.9 -33502.7 -34478.8 -35808.4 
-37667.6 -40318.4 -44289 -50844.6 -60155.6 -71714.7 -70688.7 -41691.6 -14677.1 
-31463.5 -37209.3 -46864.4 -52709 -59063.8 -65889.7 -71724 -77502.7 -83456.3 
-88976.7 -93550 -97228.5 -100654 -108178 -122404 -124899 -120234 -126874 
-145818 -204533 -461418 -1.93096e+06 -1.23531e+07 -7.61689e+06 8.09127e+06 3.47887e+06 -1.97228e+06 
-250387 156399 263401 309268 343594 371748 391134 400186 400835 
397309 393558 390975 387504 386621 397415 415166 448306 658672 
955073 668049 315933 228396 21478.9 -28966.2 -35428.9 -32569.5 -28763.3 
-25615.9 -23188.1 -34167.4 -35194.7 -36571.4 -38464.9 -41088.3 -44818.4 -50195.2 
-57007.5 -62308.6 -53383.1 -29855 -16148.9 -35532.9 -34697.4 -48194.2 -53013.2 
-59566.3 -67141.8 -72520.4 -77973.6 -83986.4 -89652.4 -94378.4 -98321.5 -102343 
-111847 -128009 -129174 -120646 -122639 -123431 -89529.3 -36490.9 -287795 
-7.7221e+06 -4.93677e+06 1.25737e+07 1.09553e+07 565511 46468.8 168489 246658 298029 
341731 375452 396924 406564 407413 403248 396671 387191 372821 
361594 367503 389791 426482 499467 301174 325541 592433 315191 
-19606.8 -54369.1 -48156.9 -39544.5 -33125.7 -28683.5 -25818.5 -34793 -35852.2 
-37254.3 -39133.9 -41658.8 -45035.4 -49450.7 -54356 -56931.6 -50313.9 -35523.5 
-31945.9 -45427.7 -38674.1 -52472.9 -52848.9 -59816.7 -68906.3 -73279.5 -78255.2 
-84505.2 -90441.2 -95324 -99471.6 -103950 -113639 -129057 -131566 -124552 
-125412 -114962 -13094.7 499875 3.00077e+06 7.6282e+06 3.3966e+06 1.48717e+06 3.87431e+06 
669778 180045 189682 235255 286635 340398 381354 404636 414036 
413898 407927 397285 379471 353384 330564 331479 358454 393185 
387829 -7009.17 -127556 83301.3 -50044 -137830 -90710.4 -61795.4 -46152.7 
-37073.9 -31473.3 -28151.3 -35376.1 -36455.6 -37862 -39693.3 -42087 -45092.2 
-48734.1 -52332.9 -53918.7 -49858 -42861.7 -48995.8 -64645.5 -54071 -59720.5 
-50473.7 -60019.2 -71910 -73946.2 -78225.7 -85044.1 -91395.5 -96408.7 -100647 
-105310 -113600 -125952 -130225 -130208 -136940 -142200 -49927.2 556658 
3.89567e+06 1.27352e+07 2.81099e+06 -8.54219e+06 -1.99412e+06 90768 187827 199792 218539 
270802 338633 389531 413884 421972 419823 411080 395320 368259 
328218 288600 282482 319230 366545 378873 267764 230210 -295227 
-622762 -279675 -122574 -72537.9 -51359.2 -40300.9 -33727.1 -30078.6 -35922.3 
-37007.5 -38402.3 -40175.4 -42416.6 -45095.8 -48163.8 -51030.1 -52142.5 -50383.8 
-47841.1 -54009.8 -64938.7 -60075.8 -68089 -50695.7 -63251.6 -78079.8 -74726.7 
-77783.5 -85703.9 -92601.5 -97674.5 -101818 -106454 -112912 -121628 -126667 
-133944 -155122 -188577 -184752 -81941.4 652792 5.41898e+06 2.09205e+06 -4.40022e+06 
-1.71232e+06 1401.08 211354 205554 192481 249048 336680 399252 423588 
429328 424373 412262 390913 353815 296031 233889 221882 274819 
343293 396743 494830 655969 -110264 -687436 -296991 -127752 -76269.7 
-54324.3 -42576.4 -35337.6 -31573.2 -36429.3 -37513.8 -38887.6 -40598 -42678.3 
-45104.6 -47742.8 -50098.8 -51258.2 -50917.9 -50502.2 -54853.1 -60670.1 -64274.6 
-70227.1 -62054.6 -74147.1 -88430.6 -73895.4 -76461.8 -86687.5 -94229.7 -99086.3 
-103074 -107498 -112729 -118307 -123508 -133376 -169339 -237395 -337560 
-886473 -3.04088e+06 -627218 4.79406e+06 3.287e+06 341171 283421 277448 216968 
173184 235200 338569 409594 432607 435003 426638 410916 384141 
336719 259413 174654 158100 229964 321640 394866 486864 559559 
69127.6 -323345 -168008 -102552 -72305.9 -54984.5 -44156.4 -36406.1 -32614.9 
-36903.5 -37979.6 -39328.3 -40969.5 -42909.1 -45137.7 -47458.7 -49524.2 -50796 
-51277 -52087.7 -55624.4 -60398.6 -65338.2 -71205.4 -67890.8 -75664.4 -75634 
-62783 -74638.2 -88492.5 -96600.4 -100734 -104462 -108433 -112689 -116778 
-121057 -129101 -161636 -238014 -401671 -1.31441e+06 -5.02091e+06 -2.27709e+06 6.88144e+06 
6.42019e+06 1.55661e+06 547177 346689 239879 178725 236721 342731 415727 
437355 437499 425621 406540 375206 318767 224979 121327 99644.6 
189786 301996 383178 434820 420923 267380 105192 4301.6 -64984.4 
-64897.1 -54129.5 -44985.7 -37001.4 -33634.7 -37342.1 -38412.2 -39731.3 -41308.7 
-43140.9 -45194.8 -47294.7 -49184.4 -50579.9 -51587.5 -52995.1 -56074.8 -60044.5 
-64245 -67572.1 -66696.5 -69250.1 -57951.3 -50912.2 -75268.5 -95465.9 -99451.7 
-102510 -105835 -109376 -112813 -116156 -118956 -122468 -140274 -184084 
-277830 -1.06639e+06 -5.68214e+06 -3.13185e+06 6.87578e+06 6.58073e+06 1.69943e+06 622464 386764 
269060 201677 247524 343655 411325 434043 434340 420249 398914 
364671 302602 199328 83809.6 58696.9 163038 289695 373644 394605 
289021 343596 411474 151890 -39500.7 -60012.2 -52759.6 -45131.5 -37391.9 
-33888.7 -37754.1 -38814.1 -40104.9 -41629.2 -43374.4 -45288.4 -47228 -49012.3 
-50493 -51805.8 -53496.6 -56243 -59637.2 -63192 -65673.9 -66408.1 -66592.1 
-52965.1 -53735.8 -84957.6 -104366 -99914.8 -104202 -107401 -110318 -113201 
-115944 -117588 -116594 -114868 -94522.5 32478.4 219614 -1.14319e+06 -1.38539e+06 
1.82209e+06 2.64668e+06 905750 504096 390904 293049 234410 264105 340923 
397408 419193 424707 410162 388259 353456 290649 187210 71439.2 
46219 156473 289428 374598 381865 164561 96185.6 230684 98981.6 
-55970.5 -62070.6 -51612.4 -44745.5 -37856.1 -33766.8 -38136.9 -39189.6 -40456.4 
-41938.9 -43615.1 -45423.5 -47247.6 -48952.8 -50471.4 -51939.2 -53746.3 -56238.5 
-59272.8 -62232.7 -64410.5 -65622.5 -64217.4 -55400.6 -64957 -95651.9 -113593 
-109110 -108859 -109265 -111234 -113796 -116208 -117437 -114915 -101934 
-31494.7 329005 1.96701e+06 8.90065e+06 4.40897e+06 -7.39402e+06 -4.83037e+06 -244433 344434 
375827 320090 272602 286412 333380 369594 395062 405143 395828 
375269 342488 284158 189063 85258 65498.8 173046 303212 389698 
421319 344763 62752.9 -249188 -254131 -114065 -68093.2 -51422.5 -44910.8 
-39673.1 -33784.2 -38496.5 -39540.8 -40791.5 -42243.5 -43869.7 -45602.6 -47340.4 
-48976.4 -50484.1 -51992.7 -53788 -56119.5 -58862.6 -61502.5 -63588.4 -65220.4 
-64219.9 -60841.6 -73092.9 -99312.5 -117847 -117297 -111887 -110484 -112020 
-114533 -116983 -118483 -116974 -105908 -44697.8 276661 1.99692e+06 1.10617e+07 
7.01746e+06 -8.22712e+06 -6.33775e+06 -363347 359571 392305 343481 307335 308816 
321120 326642 356103 378268 377940 360690 332660 282650 202099 
118459 109427 209249 327941 412849 484777 717295 476325 -449873 
-573953 -148905 -69914.7 -50425.8 -44211.3 -39447.2 -32591.9 -38829.3 -39871.4 
-41112.8 -42547.5 -44142.5 -45828.4 -47502.5 -49067.6 -50516.6 -51979.6 -53698 
-55877.1 -58419.5 -61091.7 -63117 -65197.1 -65049.7 -63714.1 -73804.3 -92958.9 
-106563 -109168 -109049 -110555 -112499 -115314 -118190 -120391 -121576 
-122792 -125870 -163957 -369945 -194069 2.97893e+06 3.28664e+06 1.05802e+06 805149 
554292 420048 355254 337385 332589 311300 280515 305032 345457 
359353 345705 323941 284412 220835 159825 164027 255886 358095 
433963 500295 692966 584018 -120928 -346163 -98289.3 -57365.1 -46291.1 
-41828.5 -37554.3 -31270.9 -39140.6 -40181.5 -41422.5 -42853.8 -44439.3 -46104 
-47736.5 -49223.3 -50568.2 -51909.5 -53485.5 -55518.9 -58008.8 -60765 -63299.4 
-65763.8 -66264.9 -64325.6 -72907 -92558.6 -100117 -103428 -107219 -109963 
-112731 -116091 -119646 -122582 -126222 -139085 -202294 -568802 -2.66137e+06 
-1.1047e+07 -624840 1.4708e+07 8.08173e+06 1.83184e+06 708498 424144 360480 362883 
360640 308061 244259 254064 310976 340882 332984 316019 286807 
240317 201529 220148 304193 389244 452110 474750 325731 244193 
402214 265038 5926.37 -36882.2 -40582.5 -38962.9 -35558.5 -30692 -39425 
-40472.1 -41721.6 -43164.6 -44762.8 -46436.4 -48047 -49458.3 -50646.4 -51791.1 
-53151.7 -55032 -57543.2 -60578.9 -63707.7 -66289.1 -68194.1 -63928.9 -66510.4 
-87335 -102524 -104496 -106878 -109171 -112756 -116812 -121258 -124674 
-128665 -142670 -204876 -531510 -2.28623e+06 -7.64715e+06 2.61233e+06 1.31687e+07 5.9704e+06 
1.47008e+06 629120 369330 356710 395020 392719 309684 215956 211687 
282576 326024 322113 308966 286541 253267 236384 268033 345225 
419163 475053 485981 308567 373142 750816 514828 57003.4 -27277.6 
-36698 -36292.6 -33923.2 -30366.3 -39687.4 -40740.3 -42009.9 -43480.8 -45115.2 
-46832.9 -48454 -49796.7 -50764.8 -51634.3 -52686.7 -54366.7 -57019.7 -60404.1 
-64359.7 -67423.9 -71880.8 -67622.2 -64000.7 -81374.6 -100775 -106186 -105106 
-108186 -112506 -117468 -123290 -126682 -128984 -134740 -149403 -184876 
-180650 3.4443e+06 7.66076e+06 1.8291e+06 -2.27234e+06 190194 403158 302054 338071 
408687 398399 312130 205002 187667 266664 325641 325315 305932 
283573 259187 258415 301607 376889 447793 502877 539697 665068 
746584 534253 193274 11870.9 -35615.2 -37206.8 -34725.5 -32283.7 -29626.9 
-39920.9 -40985.3 -42283 -43801.8 -45500.1 -47305 -48985.6 -50271.7 -50940.2 
-51447.3 -52047.2 -53477.5 -56248.1 -60471.5 -65476.5 -66375.8 -68250.3 -71155.8 
-66437.4 -77877.8 -95227.5 -103601 -103674 -107156 -112021 -118080 -126172 
-129244 -129177 -126210 -95443.3 80874.9 1.08746e+06 7.10993e+06 6.05423e+06 -5.70738e+06 
-6.2864e+06 -514920 293932 286435 324413 386417 378197 312077 218532 
192839 269134 338383 341160 310834 278606 258378 269662 324789 
402651 475028 525077 562207 749877 389660 -246919 -245948 -68541.9 
-47441.4 -38735.3 -33955.7 -30821.4 -28534.4 -40127.6 -41203.6 -42534.4 -44123.6 
-45932 -47854.2 -49669 -50949.7 -51203.8 -51253.1 -51186.6 -52400.9 -55014.7 
-60785.9 -67476.5 -63897.9 -61762.1 -75310.3 -69995.6 -77563.1 -91067.2 -99275.9 
-102283 -106079 -111060 -118744 -130026 -132369 -130515 -125288 -79161.9 
147568 1.09567e+06 4.52636e+06 1.69421e+06 -5.69939e+06 -4.04901e+06 -10435.6 415284 328358 
323634 357268 353489 309887 244758 223068 285877 353485 355998 
314358 269829 247806 269785 338386 424580 499387 537011 525132 
460377 -194626 -683331 -366323 -109356 -55377.8 -39410.5 -32780.5 -29455.1 
-27314.6 -40298.5 -41391.3 -42757.4 -44424.9 -46401.2 -48511.7 -50559.5 -51892.1 
-51691.2 -50764.2 -50405.4 -51013.1 -53100.2 -59780.6 -66560.5 -59494.1 -55820 
-74423.4 -72148.5 -77894.2 -88416.4 -96119 -100582 -104820 -109646 -118289 
-132230 -134006 -131791 -130247 -101992 28433.8 476232 1.66503e+06 12072.9 
-748736 1.57516e+06 1.44874e+06 659256 364239 315313 329121 330164 305309 
267857 259282 307355 361697 360035 310003 253937 227172 258288 
342176 441391 519785 547587 490499 306589 -95127.4 -339024 -223077 
-93810.7 -52453.5 -37475.7 -30993 -27821.8 -25946.1 -40436.4 -41539.1 -42944.7 
-44707.4 -46871.5 -49297.3 -51729.5 -53263.8 -52474.1 -49951.7 -49644.8 -49919.3 
-52669.9 -53958.1 -58318.1 -44187.9 -49253.1 -66306.2 -71025.5 -77656.8 -86423.3 
-93691.1 -98854 -103462 -108116 -116016 -130460 -133198 -132532 -140371 
-148340 -173031 -336480 -1.42303e+06 -3.91651e+06 3.88335e+06 9.27403e+06 3.23899e+06 763150 
335609 287375 302220 310526 300265 282037 283349 320768 359986 
352553 295645 226418 193469 233371 336276 451029 535560 564422 
472847 229856 165610 109339 -56193.2 -56443.7 -42367.9 -33401.9 -28523.7 
-25870.3 -24263.4 -40533 -41640.1 -43079 -44948.6 -47331.6 -50191.9 -53277.4 