# vtk DataFile Version 4.2
vtk output
ASCII
DATASET RECTILINEAR_GRID
FIELD FieldData 6
base_index 1 3 int
0 56 0 
avtOriginalBounds 1 6 double
0 20 17.5 20 0 0 
MeshName 1 1 string
amr_mesh

CYCLE 1 1 int
8960 
TIME 1 1 double
0.0001301041685 
VisItExpressions 1 0 string

DIMENSIONS 33 9 1
X_COORDINATES 33 float
0 0.625 1.25 1.875 2.5 3.125 3.75 4.375 5 
5.625 6.25 6.875 7.5 8.125 8.75 9.375 10 10.625 
11.25 11.875 12.5 13.125 13.75 14.375 15 15.625 16.25 
16.875 17.5 18.125 18.75 19.375 20 
Y_COORDINATES 9 float
17.5 17.8125 18.125 18.4375 18.75 19.0625 19.375 19.6875 20 

Z_COORDINATES 1 float
0 
CELL_DATA 256
SCALARS P float
LOOKUP_TABLE default
-1009.22 -1001.99 -997.015 -985.797 -968.8 -947.952 -923.434 -896.473 -867.279 
-837.998 -808.792 -779.582 -750.531 -722.652 -696.072 -670.403 -645.763 -622.408 
-600.409 -579.491 -559.703 -541.152 -523.856 -507.858 -493.182 -480.269 -469.149 
-460.16 -453.288 -448.376 -445.429 -441.982 -873.821 -869.188 -864.145 -854.57 
-840.3 -822.433 -801.44 -778.203 -753.271 -727.959 -702.629 -677.284 -652.203 
-627.972 -604.791 -582.436 -561.038 -540.72 -521.563 -503.393 -486.257 -470.193 
-455.239 -441.42 -428.813 -417.704 -408.198 -400.547 -394.736 -390.606 -387.908 
-385.628 -739.007 -735.891 -731.437 -723.444 -711.645 -696.687 -679.07 -659.52 
-638.631 -617.273 -595.831 -574.373 -553.194 -532.647 -512.935 -493.944 -475.804 
-458.558 -442.285 -426.883 -412.394 -398.815 -386.182 -374.525 -363.93 -354.593 
-346.638 -340.273 -335.47 -332.071 -329.804 -328.234 -604.519 -602.358 -598.707 
-592.259 -582.776 -570.645 -556.313 -540.395 -523.423 -505.989 -488.433 -470.871 
-453.559 -436.715 -420.519 -404.929 -390.061 -375.912 -362.553 -349.933 -338.087 
-326.987 -316.664 -307.154 -298.533 -290.938 -284.489 -279.36 -275.518 -272.81 
-271.011 -269.906 -470.328 -468.611 -465.665 -460.664 -453.388 -444.042 -432.989 
-420.694 -407.587 -394.066 -380.403 -366.751 -353.29 -340.174 -327.523 -315.37 
-303.771 -292.741 -282.315 -272.486 -263.262 -254.63 -246.608 -239.231 -232.56 
-226.688 -221.723 -217.772 -214.815 -212.73 -211.36 -210.51 -335.932 -334.781 
-332.647 -329.086 -323.931 -317.295 -309.442 -300.702 -291.379 -281.74 -271.983 
-262.236 -252.622 -243.245 -234.19 -225.496 -217.197 -209.306 -201.845 -194.819 
-188.229 -182.065 -176.339 -171.079 -166.33 -162.153 -158.631 -155.832 -153.74 
-152.265 -151.297 -150.737 -201.547 -200.866 -199.563 -197.422 -194.341 -190.379 
-185.691 -180.469 -174.894 -169.122 -163.271 -157.427 -151.66 -146.033 -140.594 
-135.373 -130.389 -125.65 -121.169 -116.951 -112.994 -109.296 -105.862 -102.711 
-99.8676 -97.3702 -95.267 -93.5945 -92.342 -91.4581 -90.8781 -90.5555 -67.1746 
-66.9496 -66.5114 -65.796 -64.7709 -63.4539 -61.8953 -60.1585 -58.3036 -56.3819 
-54.4331 -52.486 -50.5644 -48.6889 -46.8757 -45.135 -43.473 -41.8931 -40.399 
-38.9926 -37.6736 -36.4409 -35.2968 -34.247 -33.3003 -32.4692 -31.7696 -31.2128 
-30.7953 -30.5002 -30.3067 -30.2014 
FIELD FieldData 1
avtGhostZones 1 256 unsigned_char
0 0 0 0 0 0 0 0 0 
0 0 0 0 0 0 0 0 0 
0 0 0 0 0 0 0 0 0 
0 0 0 0 0 0 0 0 0 
0 0 0 0 0 0 0 0 0 
0 0 0 0 0 0 0 0 0 
0 0 0 0 0 0 0 0 0 
0 0 0 0 0 0 0 0 0 
0 0 0 0 0 0 0 0 0 
0 0 0 0 0 0 0 0 0 
0 0 0 0 0 0 0 0 0 
0 0 0 0 0 0 0 0 0 
0 0 0 0 0 0 0 0 0 
0 0 0 0 0 0 0 0 0 
0 0 8 8 8 8 8 8 8 
8 8 8 8 8 8 8 8 8 
8 8 8 8 8 8 8 8 8 
8 8 8 8 8 8 8 8 8 
8 8 8 8 8 8 8 8 8 
8 8 8 8 8 8 8 8 8 
8 8 8 8 8 8 8 8 8 
8 8 8 8 8 8 8 8 8 
8 8 8 8 8 8 8 8 8 
8 8 8 8 8 8 8 8 8 
8 8 8 8 8 8 8 8 8 
8 8 8 8 8 8 8 8 8 
8 8 8 8 8 8 8 8 8 
8 8 8 8 8 8 8 8 8 
8 8 8 8 
