# vtk DataFile Version 4.2
vtk output
ASCII
DATASET RECTILINEAR_GRID
FIELD FieldData 6
base_index 1 3 int
0 0 0 
avtOriginalBounds 1 6 double
0 8.75 0 4.375 0 0 
MeshName 1 1 string
amr_mesh

CYCLE 1 1 int
0 
TIME 1 1 double
0 
VisItExpressions 1 0 string

DIMENSIONS 15 15 1
X_COORDINATES 15 float
0 0.625 1.25 1.875 2.5 3.125 3.75 4.375 5 
5.625 6.25 6.875 7.5 8.125 8.75 
Y_COORDINATES 15 float
0 0.3125 0.625 0.9375 1.25 1.5625 1.875 2.1875 2.5 
2.8125 3.125 3.4375 3.75 4.0625 4.375 
Z_COORDINATES 1 float
0 
CELL_DATA 196
SCALARS P float
LOOKUP_TABLE default
0 0 0 0 0 0 0 0 0 
0 0 0 0 0 0 0 0 0 
0 0 0 0 0 0 0 0 0 
0 0 0 0 0 0 0 0 0 
0 0 0 0 0 0 0 0 0 
0 0 0 0 0 0 0 0 0 
0 0 0 0 0 0 0 0 0 
0 0 0 0 0 0 0 0 0 
0 0 0 0 0 0 0 0 0 
0 0 0 0 0 0 0 0 0 
0 0 0 0 0 0 0 0 0 
0 0 0 0 0 0 0 0 0 
0 0 0 0 0 0 0 0 0 
0 0 0 0 0 0 0 0 0 
0 0 0 0 0 0 0 0 0 
0 0 0 0 0 0 0 0 0 
0 0 0 0 0 0 0 0 0 
0 0 0 0 0 0 0 0 0 
0 0 0 0 0 0 0 0 0 
0 0 0 0 0 0 0 0 0 
0 0 0 0 0 0 0 0 0 
0 0 0 0 0 0 0 
FIELD FieldData 1
avtGhostZones 1 196 unsigned_char
8 8 8 8 8 8 8 8 8 
8 8 8 0 0 8 8 8 8 
8 8 8 8 8 8 8 8 0 
0 8 8 8 8 8 8 8 8 
8 8 8 8 0 0 8 8 8 
8 8 8 8 8 8 8 8 8 
0 0 8 8 8 8 8 8 8 
8 8 8 8 8 0 0 8 8 
8 8 8 8 8 8 8 8 8 
8 0 0 8 8 8 8 8 8 
8 8 8 8 8 8 0 0 8 
8 8 8 8 8 8 8 8 8 
8 8 0 0 8 8 8 8 8 
8 8 8 8 8 8 8 0 0 
8 8 8 8 8 8 8 8 8 
8 8 8 0 0 8 8 8 8 
8 8 8 8 8 8 8 8 0 
0 8 8 8 8 8 8 8 8 
8 8 8 8 0 0 0 0 0 
0 0 0 0 0 0 0 0 0 
0 0 0 0 0 0 0 0 0 
0 0 0 0 0 0 0 
