# vtk DataFile Version 4.2
vtk output
ASCII
DATASET RECTILINEAR_GRID
FIELD FieldData 6
base_index 1 3 int
6 10 0 
avtOriginalBounds 1 6 double
0.46875 5.9375 0.390625 3.59375 0 0 
MeshName 1 1 string
amr_mesh

CYCLE 1 1 int
5120 
TIME 1 1 double
7.5048822449e-05 
VisItExpressions 1 0 string

DIMENSIONS 71 83 1
X_COORDINATES 71 float
0.46875 0.546875 0.625 0.703125 0.78125 0.859375 0.9375 1.01562 1.09375 
1.17188 1.25 1.32812 1.40625 1.48438 1.5625 1.64062 1.71875 1.79688 
1.875 1.95312 2.03125 2.10938 2.1875 2.26562 2.34375 2.42188 2.5 
2.57812 2.65625 2.73438 2.8125 2.89062 2.96875 3.04688 3.125 3.20312 
3.28125 3.35938 3.4375 3.51562 3.59375 3.67188 3.75 3.82812 3.90625 
3.98438 4.0625 4.14062 4.21875 4.29688 4.375 4.45312 4.53125 4.60938 
4.6875 4.76562 4.84375 4.92188 5 5.07812 5.15625 5.23438 5.3125 
5.39062 5.46875 5.54688 5.625 5.70312 5.78125 5.85938 5.9375 
Y_COORDINATES 83 float
0.390625 0.429688 0.46875 0.507812 0.546875 0.585938 0.625 0.664062 0.703125 
0.742188 0.78125 0.820312 0.859375 0.898438 0.9375 0.976562 1.01562 1.05469 
1.09375 1.13281 1.17188 1.21094 1.25 1.28906 1.32812 1.36719 1.40625 
1.44531 1.48438 1.52344 1.5625 1.60156 1.64062 1.67969 1.71875 1.75781 
1.79688 1.83594 1.875 1.91406 1.95312 1.99219 2.03125 2.07031 2.10938 
2.14844 2.1875 2.22656 2.26562 2.30469 2.34375 2.38281 2.42188 2.46094 
2.5 2.53906 2.57812 2.61719 2.65625 2.69531 2.73438 2.77344 2.8125 
2.85156 2.89062 2.92969 2.96875 3.00781 3.04688 3.08594 3.125 3.16406 
3.20312 3.24219 3.28125 3.32031 3.35938 3.39844 3.4375 3.47656 3.51562 
3.55469 3.59375 
Z_COORDINATES 1 float
0 
CELL_DATA 5740
SCALARS P float
LOOKUP_TABLE default
1583.95 1573.85 1582.6 1620.32 1689.16 1805.68 1975.63 2220.89 2553.5 
2992.59 3547.43 4187.66 4892.41 5556.92 6129 6477 6554.93 6330.17 
5827.05 5170.16 4408.98 3642.67 2884.12 2197.67 1592.97 1092.61 690.117 
354.494 42.1714 -350.933 -862.932 -1565.85 -2472.17 -3600.77 -4931.06 -6407.66 
-7985.69 -9632.88 -11394.5 -13173.3 -14979.1 -16247.8 -16882 -17508.5 -18708.1 
-21257.9 -25230.8 -28875.8 -30720.5 -30365.9 -31025.3 -33774.6 -38017.5 -38654.1 
-35474.6 -29477.8 -21132.4 -12735.9 -5130.59 700.65 4819.83 7569.88 9180.57 
10112.8 10480.5 10560.4 10390.9 10125 9784.29 9422.36 1685.96 1668.33 
1672.52 1705.55 1773.79 1890.3 2066.58 2323.5 2681.9 3166.84 3792.63 
4539.76 5367.98 6177.82 6870.61 7311.58 7411.72 7133.67 6526.13 5728.34 
4840.56 3954.77 3101.06 2332.25 1673.25 1152.32 762.022 462.794 176.539 
-198.152 -731.283 -1484.06 -2485.05 -3746.03 -5236.63 -6885.52 -8622.09 -10423.2 
-12364.7 -14464.4 -16530.1 -17993.4 -18480.5 -18730 -19739.8 -22596 -27709.1 
-32919.5 -34726.7 -33696.2 -33518.6 -37053 -44190.8 -45583 -41735.2 -34441.6 
-24262.2 -13763.2 -4817.48 1759.68 6216.99 9041.96 10654.9 11493.7 11788.9 
11764.6 11522.2 11178.7 10776.8 10358.2 1778.28 1752.37 1749.86 1776.93 
1841.47 1955.4 2133.17 2396.81 2775.33 3302.82 4004.05 4868.22 5844.61 
6824.09 7671.1 8226.19 8357.08 8012.46 7266.46 6300.44 5262.18 4248.21 
3289.22 2432.71 1716.16 1180.33 818.445 574.623 338.587 -6.39492 -551.277 
-1353.84 -2452.24 -3856.91 -5526.02 -7362.97 -9261.4 -11196.5 -13322.5 -15758.6 
-18206.6 -19939.1 -20177.1 -19887.7 -20449.2 -23415.8 -30144.8 -38011.3 -39993 
-35934.8 -35189.1 -39709.6 -52006.5 -53961.3 -49137.3 -40750.1 -28033.6 -14817.2 
-4183.25 3177.53 7901.18 10726 12254.8 12966.1 13144.5 13004.1 12668 
12239.8 11769.3 11290.8 1860.43 1824.9 1813.88 1833.15 1891.18 1999.24 
2173.03 2436.6 2827.02 3391.32 4170.14 5164.03 6315.86 7498.34 8539.57 
9240.21 9414.13 8983.19 8054.01 6880.1 5666.79 4516.13 3444.45 2492.72 
1713.88 1170.09 857.051 695.611 536.699 235.814 -312.704 -1164.79 -2366.32 
-3930.45 -5805.6 -7856.75 -9926.56 -11969.4 -14252.8 -17038.5 -19999.4 -22195 
-22164.7 -21087.7 -20711.9 -23422.6 -32294.5 -44989.4 -47500.5 -33168.7 -34608.3 
-41559.5 -62492 -63646.4 -56992.8 -48100.8 -32780.3 -15985.1 -3179.53 4984.41 
9882.01 12614.3 13979.2 14516.6 14542.6 14268.5 13823 13303.3 12758.6 
12218.9 1931.69 1885.12 1863.72 1873.18 1922.03 2020.54 2184.32 2438.93 
2829.84 3421.25 4276.96 5414.8 6773.6 8201.54 9487.08 10378 10613.9 
10068.8 8893.21 7457.2 6043.26 4750.68 3561.48 2504.74 1655.01 1110.84 
872.773 830.444 781.481 540.564 -5.6382 -908.36 -2221.32 -3963.42 -6078.6 
-8381.52 -10646.7 -12767.9 -15142.5 -18259.2 -21894 -24944 -25151.4 -23013.8 
-20838.6 -21497.9 -32834.4 -56450.5 -60486.1 -22676.8 -38892.8 -46982.9 -77200.5 
-72662.2 -62501.1 -53379.4 -37626 -17280.6 -1806.38 7212.6 12168.5 14695.1 
15816.2 16132.3 15973.4 15547.2 14979.7 14362.1 13740.5 13139 1991.71 
1932.37 1898.7 1896.3 1933.39 2018.62 2165.82 2400.42 2776.06 3378.9 
4306.55 5603.87 7207.03 8933.06 10526.2 11669.7 12000 11300.4 9785.38 
8013.41 6374.14 4942.99 3634.77 2459.68 1524.11 987.472 858.795 984.185 
1085.42 920.612 379.404 -576.495 -2008.57 -3948.21 -6347.66 -8962.6 -11472.4 
-13630.2 -15969.4 -19372.3 -23880.5 -28239.7 -29072.9 -24730.1 -20518.1 -15613.5 
-28869.1 -59998.9 -67448.3 -23243.9 -55846.5 -68817.2 -99542.4 -85246 -66335.9 
-55694.1 -41333 -18755.7 -105.643 9857.29 14728.4 16941 17741.3 17793.2 
17422.9 16827.8 16127.9 15408.4 14708.6 14046.6 2040.02 1966.16 1918.18 
1901.89 1924.96 1993.55 2117.44 2318.82 2657.82 3247.9 4235.81 5709.02 
7601.85 9689.79 11668.1 13154.8 13631.8 12723 10727.2 8515.03 6633.53 
5084.76 3662.14 2348.02 1299.83 776.737 805.014 1164.53 1464.7 1391.1 
851.943 -159.677 -1712.42 -3870.62 -6613.54 -9638.32 -12502.4 -14672.3 -16804.4 
-20295 -25935 -32177.5 -33383.8 -22207.5 -18381.8 -13476 -12534.7 -8311.93 
-163.519 10691.3 -8929.48 -73888.5 -123740 -100858 -70443.4 -58517.7 -45136.9 
-20670 1659.81 12882.5 17537.8 19315.5 19723.3 19474.7 18873.3 18096 
17257.1 16433.2 15656.6 14937.2 2076.58 1986.03 1921.62 1889.48 1896.7 
1946.1 2040.46 2193.59 2467.64 3008.36 4034.18 5700.02 7938.75 10465.8 
12923.8 14880.6 15598.5 14398 11708.5 8893.82 6778.12 5164.92 3644.52 
2162.37 952.212 446.286 693.645 1382.24 1945.2 1973.97 1424.94 358.157 
-1304.71 -3694.76 -6851.62 -10446.8 -13892.7 -16245.4 -17903.6 -21179.7 -27922 
-37055 -41335.8 -24205.3 -19696.6 -14154.2 7908.08 55566.9 80950.2 47785.6 
27033.9 -56248.4 -128836 -109184 -74854.2 -62331.1 -51756.9 -23233.9 3535.42 
16207.6 20537.8 21762.2 21722.7 21148.5 20301.8 19336.4 18355.2 17427.6 
16577.8 15806.1 2101 1991.63 1908.38 1858.41 1848.55 1877.59 1937.8 
2026.56 2198.72 2635.13 3659.82 5535.74 8192.32 11249.9 14297.3 16905.6 
18028.5 16424.3 12687.3 9067.02 6758.23 5178.06 3584.71 1897.25 439.332 
-52.7104 499.802 1657.67 2569.17 2696.87 2113.22 997.662 -751.66 -3377.53 
-7041.43 -11426.4 -15895.4 -19293.7 -20152.2 -22586.4 -29290.4 -45320.3 -55906.4 
-30735.1 -26915.6 -27389 7786.81 52551.9 57935.9 1806.71 -22297.4 -97138.5 
-128588 -110376 -76537 -69662.5 -61823.2 -27447.3 5393.74 19732.3 23652.1 
24206.4 23696.9 22782.6 21687.7 20532.4 19409.8 18381.3 17464.1 16647.3 
2113.6 1982.53 1877.66 1807.69 1780.13 1789.69 1814.48 1823.94 1847.84 
2098.92 3057.1 5161.06 8331.35 12025.2 15769.7 19285.5 21126.5 18966.6 
13606 8863.01 6496.4 5127.49 3489.97 1550.49 -303.13 -786.824 172.205 
2023.2 3395.07 3603.39 2922.76 1765.25 -34.5683 -2888.49 -7156.5 -12580.7 
-18813.5 -24381.8 -24855.6 -22688.3 -25586.2 -52981.5 -79394.8 -45077.6 -39045.4 
-45310.9 3624.79 67401.7 45797.8 -39797.7 -111579 -157084 -131676 -105260 
-74594.5 -84230.7 -80079.4 -34574.3 7093.28 23552 26736.7 26569.8 25582.5 
24349.9 23010.1 21667 20406.1 19283.1 18307 17455.7 2114.25 1958.34 
1828.44 1735.88 1690.58 1684.51 1678.75 1599.57 1420.48 1366.32 2148.92 
4500.56 8320.35 12774.5 17286.1 22071.6 25203.9 22289.4 14332.6 7980.53 
5871.77 5036.59 3373.04 1127.03 -1378.71 -1866.56 -356.586 2528.04 4524.72 
4735.03 3836.18 2642.51 857.025 -2182.53 -7065.75 -13869.2 -22609.6 -31434.1 
-30400.4 -20337.3 -6213.9 -17746.9 -47218.5 -35865.6 -48222.2 -61240.8 -5043.94 
90390.4 94185.2 -50588.1 -207944 -195832 -118186 -96411.9 -74521.2 -108242 
-112495 -46349.1 9004.04 27911.6 29834.5 28717 27316.1 25820.3 24252.1 
22722.2 21327.2 20119.7 19097.9 18225.9 2103.35 1918.71 1759.49 1640.86 
1577.88 1563.49 1541.47 1376.96 935.837 398.761 824.369 3446.28 8126.95 
13489.5 18723 25257.1 30776.7 26845.8 14553.1 5916.06 4597.27 4918.14 
3192.2 559.534 -3015.28 -3436.35 -1221.63 3265.99 6128.37 6119.28 4803.17 
3584.68 1941.96 -1165.53 -6657.08 -14955.9 -27027 -41861 -43851.7 -19864.9 
10034.3 16290.7 -1920.68 -19602.3 -54210.8 -96226.5 -16902.7 142767 166190 
-60340 -285446 -189296 -73216.7 -90609 -68356.8 -142586 -164360 -60200.2 
14419 33516.8 32827.4 30528.2 28839 27170 25395.8 23677.4 22152.6 
20875.2 19827 18952.8 2081.06 1863.41 1669.3 1519.44 1437.83 1425.46 
1414.58 1192.63 439.596 -844.354 -1078.85 1841.9 7724.9 14193.6 19767.5 
28572.9 38707.9 33484.3 13839.8 1378.73 2474.86 4868.85 2708.64 -469.616 
-5637.73 -5750.58 -2708.57 4417.95 8455.54 7787.04 5701.15 4523.53 3246.1 
256.797 -5670.36 -15530.5 -31538 -60591.7 -71277.8 -27027.5 5475.62 5117.99 
2351.96 -13911.6 -58934.8 -126529 -28535.8 217960 254637 -93728.6 -419459 
-156707 15586.1 -92765.8 -21421.6 -183313 -242708 -63770.2 30638.7 41739.3 
35312.1 31801.8 30112.3 28391.3 26426 24510.8 22860.8 21533.7 20485.1 
19632.5 2048.72 1792.4 1556.15 1367.16 1262.95 1263.95 1307.72 1098.63 
25.8944 -2399.9 -3810.33 -569.25 7113.9 14964 19869.7 31367 50523.9 
43684.3 11178.6 -7105.38 -1331.85 5238.27 1841.24 94.1792 -7604.56 -10034.4 
-5444.43 6326.36 11937.7 9723.11 6309.22 5389.16 4778.66 2215.67 -3888.97 
-15128.9 -34972 -82629.7 -100390 -20067.7 2101.45 -12085 7563.55 -2825.55 
-56435.2 -161787 -79532.8 319365 393141 -162823 -706924 -111388 146529 
-141343 103624 -239364 -370023 -35759.1 68008.1 52487.8 36359.7 32255.7 
31152 29518.2 27339.1 25199.2 23428.1 22078.5 21063.9 20262.3 2006.98 
1706.16 1418.41 1178.27 1041.43 1063.17 1220.49 1159.99 -122.543 -4285.73 
-7716.88 -4151.39 6217.11 15847.7 17864.9 33038.5 65846.1 52076.1 -100.354 
-20922.2 -4690.14 8446.45 6249.58 8815.14 -7621.81 -21417.1 -11091.7 9765.16 
17393.3 11810.1 6190.6 6051.53 6551.64 4792.12 -1040.24 -13687.1 -34229.2 
-88244.6 -95766.7 -25135.9 -12923.1 -37571.6 13778.8 23878.9 -39179.1 -242150 
-232152 483631 813781 85661.4 -900841 8407.7 651691 129020 409513 
-347443 -605688 56421.8 136090 62030 33853.2 31612.2 32081.3 30616.9 
28123.3 25706.1 23823.4 22491.8 21556.4 20841.6 1958.34 1605.73 1254.97 
946.337 756.581 792.77 1128.45 1436.08 337.964 -6470.46 -13617 -9244.2 
5340.33 18694.6 19343 41916.4 71153.6 40504.8 -14618.6 -25590.3 -1524.73 
15873.9 15146.6 19922.9 2370.37 -22028.2 -12546.9 16672.1 25890.2 13611.2 
4511.07 6402.82 8581.03 8362.59 3494.85 -11791.2 -30207.9 -77793.9 -78977.7 
-46367.7 -49360.4 -83169.6 -8057.44 77942.2 56070.6 -359945 -653401 118073 
1.04628e+06 795620 -400469 290726 1.25131e+06 766916 360335 -1.23963e+06 -1.13395e+06 
295576 242200 60040.5 24554.7 29989.9 33268.4 31811.5 28761.1 25977.6 
24005.4 22753 21957.6 21374.3 1904.68 1493.41 1065.96 665.491 387.512 
402.971 960.725 1912.54 2052.25 -8871.26 -22385.8 -14592.3 7672.5 26702.5 
27222.6 46791.8 62037.5 25626.6 -14273.4 -16308.7 1729.82 18525.2 20704.9 
29730.6 29784.8 18611 14138.8 33252.3 37333.8 13913.3 -48.22 5958.13 
11626.6 13406.1 10808.9 -7929.85 -26524.1 -68184.7 -62977.3 -59999.4 -81632.9 
-127018 -65034 127490 272677 -419087 -1.0018e+06 -588481 465173 947809 
230874 525430 1.20403e+06 842917 -393681 -1.74373e+06 -233337 1.18833e+06 375638 
21076.9 4662.69 28587.3 35426.4 33240.9 29198.6 25936.8 23926.2 22844.2 
22267.5 21866.8 1850.15 1372.81 853.796 332.558 -85.6888 -179.565 526.441 
2445.45 6194.22 -2068.52 -13948.3 -2462.03 14578.5 31076.7 32944.9 44529.6 
49012.9 24115.8 -1094.37 -4370.82 5739.1 19304 28555.9 38353.4 43503.7 
45386.1 34089.8 37495.4 39085 10723.3 -8537.6 4591.73 16026.4 20826.4 
18952.1 -7544.44 -26776.5 -70359.6 -59607.6 -70038.6 -99133 -156774 -181111 
158518 762066 181446 -550867 -501697 63728.3 602538 397001 555615 
864103 544864 -475872 -277037 1.73551e+06 1.66212e+06 190641 -101284 -25500.1 
31147.4 39660.9 34958.8 29293.4 25467.2 23525.1 22746.8 22490.1 22335.2 
1798.42 1249.47 624.285 -49.8521 -677.019 -1006.85 -464.916 2005.21 12780 
25063.6 34190 35413.1 26466 30586.8 33277.1 39345.2 39439.3 23847.5 
7500.9 4191.05 10885.7 21291.8 30165.9 38116.2 40466.1 37228 21189.3 
10828.1 25463.6 6061.34 -19406.6 2481.12 20666.2 27546.2 28514.3 -4893.23 
-24776.1 -63471.7 -57403.4 -71621.5 -101215 -149338 -402737 62884.4 1.35773e+06 
1.1696e+06 265626 5459.71 212850 487890 448769 545771 681541 477536 
67709.4 736258 1.48448e+06 517050 -372138 -293669 -52941.7 45621.2 47125.5 
36741.1 28779.1 24409.7 22735.9 22453.4 22642.9 22802.4 1755.4 1130.97 
387.579 -470.156 -1380.77 -2138.94 -2218.59 -2145.34 5974.12 35758.1 57589.5 
50411.9 31637.7 30292.3 32060.4 35030 33675.6 23536 12880.2 10031.4 
14435.9 21951.3 28923.3 34840 37190 33488.3 15245.8 -2192.24 21989.4 
14860.1 -21922.2 -1412.49 13892.8 7337.39 16665.7 -1355.14 -21919.5 -43285.6 
-50871 -71792.5 -107346 -70223 -814192 -689267 1.47701e+06 1.71946e+06 634156 
283731 310327 451049 464227 526893 583975 461523 279061 553734 
496265 -184531 -566477 -434331 -43811.3 84123.3 57521.7 37668.8 27180.9 
22573 21511.8 21979.7 22760.2 23299.7 1726.6 1026.98 158.715 -906.696 
-2163.16 -3488.17 -4597.52 -7722.35 -18369.7 -2283.17 28990.2 36263.2 29551.1 
28975.9 30229.7 31702.3 30039.5 23296 16265 14050.4 16905 22290.7 
27654.7 31988.5 33677.2 31090.8 20232.2 10708.5 28999 23812.3 -24659.8 
-30219 -22200.7 -25167 -9278.73 -5964.6 -25879.3 -30249.6 -43513.3 -89358.8 
-150901 198248 -792355 -1.82283e+06 1.12032e+06 2.22396e+06 764114 422867 380108 
444273 467826 507735 531392 460224 375725 492251 446225 150987 
-130758 -115111 159234 161842 66367.4 35937.4 23838.1 19722.9 19815.4 
21363.4 22895.1 23864 1718.83 949.01 -43.2807 -1331.77 -2958.96 -4887.94 
-7091.19 -12080.8 -35545.2 -36233.5 4089.21 24191.9 25668.7 26937.1 28326.7 
29159.2 27643.9 23101 18413.8 16775.4 18654.2 22492.8 26520.4 29688.9 
30813 28782.3 22201.7 16824.9 24183.2 15922.1 -27921.4 -56333.2 -49943 
-30238.3 -12076.9 -9912.99 -36943.9 -21341.3 -30617.8 -121442 -283108 979398 
1.41282e+06 -2.13057e+06 -976372 1.77108e+06 779612 486624 423558 446992 466852 
492325 502354 462156 421871 471945 451693 375384 472244 652609 
594333 261597 59200.7 29200.6 18212.9 15657 17651 20690.2 23126.6 
24553.4 1738.3 909.342 -195.721 -1708.88 -3769.15 -6481.54 -9316.97 -21158.9 
-49140.3 -42760.6 -4683.75 15743.8 21817.3 24754.6 26491.6 27169.1 26002.1 
22925.1 19780.9 18606.1 19855.2 22598.4 25588 27900.5 28664.2 27153.3 
23007.2 19338.5 20430.5 9864.64 -22867.4 -46637.7 -41390.9 -20511.9 -3493.15 
-3212.59 -43696.6 -1963.38 3412.05 -144212 -717971 273942 2.90628e+06 -1.59707e+06 
-3.50535e+06 537636 618515 493532 444428 450108 464020 480620 485597 
463978 445128 469078 468995 480987 619350 790278 618662 189342 
8650.49 17475.1 10335.8 10310.5 15122.1 20103.1 23564 25427.5 1790.63 
920.194 -273.193 -1990.97 -4544.35 -8465.03 -13996.3 -34473.3 -63988.9 -44011.7 
-9188.93 10353.6 18777.8 22793.8 24872.5 25603.1 24818.2 22745.3 20630.8 
19809.1 20659.6 22627.2 24836.4 26536.4 27068.6 25976.8 23229.5 20336.5 
18166.7 7170.94 -18386.5 -34926.7 -29031 -11494.7 8478.26 -6982.72 -60338.3 
12503 72227.3 -60516.5 -1.65382e+06 -4.19978e+06 1.05948e+06 2.21963e+06 -2.09138e+06 205746 
509194 481173 451130 450681 460085 471540 475276 464921 457421 
472007 482936 507972 532590 624893 269090 -187767 -86659.8 9398.48 
542.684 3591.83 12431.8 19831.4 24347.7 26565.7 1880.29 991.856 -248.528 
-2106.24 -5177.46 -10800.4 -21651.5 -44483.6 -66924.1 -41399.3 -10746.8 7361.59 
16591.6 21237.4 23550.3 24382.2 23932.8 22560.8 21138.2 20576.3 21171.8 
22594.5 24231.8 25499.9 25903.7 25136.6 23206.9 20745.4 17215 5776.59 
-17691.5 -29074.6 -20468.3 -5660.16 11835.1 -39664 -88966.3 -17595.1 123824 
364697 -627297 -5.22574e+06 1.63888e+06 7.24665e+06 894314 436710 484221 468919 
450048 448297 455171 464080 468260 464932 463919 475737 492958 
533279 636889 1.05773e+06 738870 21208.3 25916.3 26683.1 -12262.6 -4746.11 
9985.3 20215.5 25652.3 28027.7 2008.36 1130.28 -99.8134 -1957.54 -5096.04 
-11401.9 -24367.5 -46817.6 -65454.5 -37532.3 -9784.36 6386.84 15446.7 20187.3 
22552.1 23449.5 23253.4 22362 21414.3 21039.7 21471 22513.5 23741.3 
24715.3 25063.6 24559.1 23147.9 21029.3 17023.2 5034.76 -21181.3 -28768.8 
-14001.8 -2650.13 6808.77 -56996.7 -110628 -67655.3 78432.3 1.09813e+06 5.05443e+06 
740692 -210414 4.7852e+06 1.3469e+06 547886 475420 456412 444354 443216 
449293 457440 462879 464119 466944 477820 496937 541937 675028 
1.18297e+06 1.27854e+06 955432 553964 54563.5 -36857.2 -15063 8567.42 21714.3 
27659.1 29873.4 2173.7 1333.7 173.302 -1532.58 -4326.08 -9441.04 -18547.8 
-34014.4 -49144 -30966.8 -7571.89 6962.36 15252.4 19666.8 21881.1 22756 
22723.4 22156.4 21529.5 21289.8 21615.5 22395.5 23337.8 24122.5 24473.5 
24198 23178.6 21390.8 17777.9 5696.06 -23627.5 -30096.8 -5503.18 1564 
1322.36 -42162.1 -105701 -113593 -199405 555517 7.61464e+06 1.4618e+06 -7.1582e+06 
-1.41003e+06 501108 477059 454156 442263 435322 435725 442412 451117 
458197 462643 467690 477564 494210 528179 603140 734431 480485 
532451 462202 -67197.6 -90349.3 -25916.1 9737.42 24922.1 30530 32113.3 
2370.62 1592.25 548.008 -908.903 -3049.49 -6267.13 -9079.44 -14551.4 -33745.9 
-26091.5 -3649.01 8927.21 15907 19636.3 21505.9 22260 22299.8 21942.3 
21532.5 21388.9 21647.4 22249.1 22998.8 23674 24076.8 24035.8 23322.8 
21988.6 18849.2 6422.81 -16074.5 -9931.57 9571.72 17436.3 5493.07 -16357.6 
-57820.2 -133388 -683651 -3.0782e+06 -480258 -2.2819e+06 -5.80679e+06 -2.26146e+06 136881 
407976 430487 426617 423465 426156 434455 444753 453823 460681 
466953 475331 486857 503466 515400 407351 -295112 -654921 -557368 
-481938 -165221 -29643.4 16092.4 30442.1 34331.2 34704.5 2592.29 1890.07 
985.795 -193.389 -1698.27 -3343.53 -1800.65 -1940.04 -17874.5 -17888.1 2044.52 
12146.1 17275.1 20023.8 21376.6 21911 21948.5 21717.7 21453.3 21378.7 
21595.7 22078.7 22704.2 23329.4 23826.6 24047.1 23626.7 22832.8 19197.1 
591.775 5056.86 11186.7 14287.1 34675.2 32365.7 15390.2 1895.02 -37079.3 
-709238 -6.04535e+06 -6.38739e+06 2.81576e+06 4.54802e+06 119972 308446 400165 413830 
410290 409314 414346 425323 438155 449633 458435 465396 472007 
477906 479557 457318 330673 -40110.5 -538964 -1.13462e+06 -916108 -192030 
-10770.2 30277.7 38494.4 38904.3 37488.9 2829.42 2209.32 1448.07 521.605 
-511.123 -1406.49 194.775 964.707 -11026.7 -8427.74 11204.8 16342.2 19147 
20723.9 21424.5 21658 21637.2 21477.7 21311.7 21287.8 21480.7 21886.5 
22435.3 23051.9 23676.5 24203.4 24033.2 23101.6 17400.5 -7784.51 16972.3 
17291.9 11831.5 30204.1 29982.9 26175.8 51412.8 212518 433119 -1.76648e+06 
-1.26916e+06 7.73767e+06 7.59638e+06 1.29544e+06 491280 412254 400594 393111 392206 
399846 414713 431298 445618 456188 463596 468538 469721 461374 
425059 322704 225526 -159515 -954198 -775004 -65578.1 42829 52731.4 
48463.7 43831.9 40235 3072.59 2533.54 1904.89 1185.47 465.691 -164.159 
-327.096 -4170.04 -8843.66 7318.6 22388.6 20638.3 21263.6 21616 21567.8 
21442 21332.5 21214.2 21119 21134.9 21315.4 21671.2 22173.5 22804.2 
23575.5 24444.8 24153.8 20888.5 15580.6 -3400.39 19007.4 15113 11096.1 
7744.91 -1325.18 22485.6 99390.9 441917 2.02933e+06 6.25761e+06 3.24958e+06 738438 
2.39817e+06 935789 494371 406949 385459 373317 371377 382140 402320 
424055 441888 454238 462042 465682 463631 449909 409030 312722 
139058 -427955 -638724 -44929.4 224388 121022 78443 58543 48418.4 
42612.5 3314.24 2848.96 2333.06 1775.96 1275.24 830.224 107.007 -2735.12 
-469.811 18538.4 25212.4 23616.8 23420.5 22585.1 21713.2 21195.8 21000 
20918 20882.3 20932.9 21108.6 21430.7 21900.7 22547.1 23461.2 24703 
24093.8 17135.4 13217.4 7321.11 28589.7 13009.3 7855.83 468.225 -5305.73 
21025.1 84933.6 353240 1.92459e+06 6.31497e+06 -588488 -6.55595e+06 -1.36031e+06 320893 
408900 387239 367392 349010 344943 360185 387865 416534 438496 
452871 461106 463910 460175 445010 406674 321416 119640 -342953 
87257.9 764480 460889 183053 98519.4 66013.4 51528.1 44252 3545.37 
3145.41 2718.86 2287.15 1898.05 1592.74 995.99 619.643 4883.24 17609.7 
21134.9 25605.2 25538.8 23568.8 21762.9 20843.4 20604.5 20579.8 20605.8 
20690.5 20866.1 21161.7 21599.6 22238.5 23233.2 24659.6 24166.6 15187.7 
11335.2 12599.8 38007.1 15541.7 6342.49 6611.59 5943.12 13372.9 682.698 
-63969.2 -135715 431423 -3.47016e+06 -5.27053e+06 -1.37209e+06 113419 348086 367473 
347316 316901 307968 330996 370725 408769 435729 452340 461034 
463427 459308 445661 415882 359153 254976 199508 737954 949919 
448087 195442 104822 68912.4 52628.5 44873.2 3762.88 3415.21 3058.22 
2711.78 2376.96 2211.85 1735.59 2284.29 5322.59 12749.2 15176.3 26768.1 
27473.5 24440 21567.8 20283.8 20109.3 20192.4 20293.8 20414.9 20592.6 
20862.3 21257.6 21847.4 22791 24085.7 23906.6 14835.8 10307.6 8095.83 
35133.8 17733.1 10842.3 12697.1 14052.2 7518.26 -74833 -483108 -2.0572e+06 
-2.49725e+06 -580680 40281.1 -136922 220139 341740 356628 325392 272715 
256200 292791 349027 400513 433926 452917 461961 464203 460554 
450140 431642 408834 408778 588328 990920 858085 338573 170033 
97283.9 66190 51696 44199.4 3958.94 3655.4 3347.11 3049.14 2783.68 
2587.6 2333.52 2626.78 4455.97 6572.73 7806.18 23864.7 27240 24884.5 
20966.7 19418.8 19478.7 19753.8 19951.9 20112.6 20292.9 20533.3 20870.1 
21360 22072.6 23003.5 22085.9 10588.5 9758.36 14705.7 34520.7 24625.4 
17767.5 18829.6 23747.2 19719.7 -70339.1 -615213 -2.89548e+06 -2.84977e+06 1.85078e+06 
2.82988e+06 712898 383490 363637 354670 303068 219356 196022 250732 
325475 391851 433672 454772 463916 466058 463237 456489 448506 
452207 516315 804980 1.28749e+06 963298 265364 116860 80468.4 59709 
49064.4 41765.9 4135.08 3862.59 3587.24 3314.88 3049.47 2824.83 2548.82 
2497.21 3066.31 2113.02 -2507.01 483.129 11283.1 21742.6 19738.8 18017 
18685 19276.5 19588.5 19791.5 19973.5 20179.6 20443 20790.6 21207.3 
21306.3 17842.7 337.94 8267.65 27813.8 36698 28027.4 21887.7 24218.1 
35479.5 53974.8 47180.9 -318581 -2.98269e+06 -2.56811e+06 3.18223e+06 3.83473e+06 1.00593e+06 
460668 384283 358537 284547 172975 142069 215020 307053 385107 
435271 457983 466838 468727 466661 462875 462431 480324 564761 
871643 1.32124e+06 751483 6378.44 36593.6 61905.7 54486.3 46734.5 39957.8 
4284.63 4037.76 3782.53 3516.58 3233.15 2909.79 2503.53 2119.52 1490.15 
-1410.61 -11936.9 -23408.1 -11270.8 14911.5 18112.1 15755.7 17606.2 18798.7 
19213 19461 19642.9 19809.7 19990.8 20181.3 20271.5 19611.3 13552.5 
-6937.07 8189.78 32432.8 36931.7 28021.6 23119 27493.2 45317.9 96826.4 
253315 541433 -314215 173640 3.2352e+06 2.86374e+06 774068 426623 384745 
364663 276890 148670 107458 193388 299583 383231 438901 462567 
470552 471896 470231 468340 471464 490838 553279 756461 794831 
84247.4 -285596 -12311.6 54054.2 53365.7 45902.8 39559.5 4412.05 4180.5 
3937.63 3666.94 3353.27 2942.85 2358.43 1690.28 360.505 -2970.99 -11150.2 
-20471.9 -13158.7 9655.46 12687.7 10847.2 15911.9 18358.6 18841.5 19132.8 
19311.2 19434.6 19532.6 19578 19409.3 18287.3 11787.2 -6481.02 8508.97 
31493.1 34852.5 26541.5 21891.8 27104.2 46339.8 118678 428983 1.6418e+06 
5.45077e+06 4.32057e+06 -765412 -1.08714e+06 135308 324634 369332 367944 282492 
155194 109792 196569 305730 387980 444797 468285 474784 475256 
473558 472378 476034 489875 509271 526537 155674 -327662 -213942 
31614.4 57103.1 55020.7 47151.8 41244.6 4511.19 4293.87 4056.06 3778.24 
3432.43 2945.56 2248.57 1284.36 -322.799 -3368.07 -8559.34 -12269.4 -4228.9 
13531.1 16335.8 12244.7 14659.7 17937.7 18494 18825.1 18989 19065.6 
19086 19016.4 18698.2 17530.5 12630.5 1964.17 10330.1 22502.3 23949.1 
20571.8 18075.4 22333.2 32675.2 86344.7 378075 1.86477e+06 8.42069e+06 5.08624e+06 
-5.28396e+06 -4.15505e+06 -273044 272826 359766 363651 293213 185672 144390 
221506 322841 398990 453020 474586 479156 478498 476372 474990 
477105 482387 470687 377260 5792.8 -70006.8 140774 104202 64534.8 
56727.8 48615.5 43140 4587.99 4377.34 4143.17 3858.95 3488.1 2945.12 
2152.14 1012.57 -688.177 -3299.81 -6359.65 -6378.77 5133.03 29747.3 47539.7 
31081.1 14825.7 17435 18207.3 18549.3 18686.7 18712.5 18663.7 18513.9 
18146.8 17160.7 14207.3 8999.96 12615.7 8076.24 5332.41 9243.83 12681.3 
14953.7 6436.97 -2923.62 23462.4 317724 2.88163e+06 1.60165e+06 -2.42615e+06 -1.70913e+06 
148918 359982 370031 357773 297253 212177 180893 246937 341288 
413031 462464 480682 483240 481341 478550 476441 475728 472157 
449830 373677 230379 261506 250256 84143.4 55310 53619.9 47584 
43833.2 4637.01 4432.92 4202.22 3916.47 3529.84 2956.37 2107.48 872.932 
-853.104 -3184.28 -5059.67 -2728.48 11003.6 42046.1 73815.1 47484.8 15596.2 
17001.7 18008.7 18322.3 18413.6 18382.6 18272.9 18069.9 17703.3 17024.4 
15271.4 12557.2 14803.4 2532.39 -2025.56 171.124 6739.4 8920.26 -16380.8 
-93670.5 -404346 -1.93574e+06 -7.16182e+06 -2.46322e+06 6.27781e+06 3.89007e+06 985337 502935 
390511 350555 290481 222625 198284 256779 347536 426306 471974 
485974 486649 483570 480078 477137 474076 466401 447538 442195 
549939 322561 -47512.6 -27166.3 41496.4 51259.7 46613.6 43622.1 4662.66 
4460.52 4234.39 3952.9 3567.35 2990.78 2126.13 860.123 -916.077 -3264.59 
-4925.07 -2069.75 12430.7 44862.3 77894.1 51083.9 17261.3 17077.8 17929.6 
18152.9 18172.8 18078.1 17913.8 17676.8 17337 16842.2 15781.6 14040.6 
16471 5138.73 -164.507 -823.281 1583.39 3620.46 -24022.3 -121390 -526892 
-2.58194e+06 -9.58139e+06 -3.64893e+06 7.67908e+06 4.95893e+06 1.14602e+06 536632 391941 343223 
280632 218747 201814 246854 337015 437294 480218 489987 489062 
485017 480975 477490 473280 463485 441973 436577 506421 72106.5 
-294225 -85752.3 31778.9 49133.5 46732.8 42536.7 4660.09 4461.36 4238.91 
3968.01 3603.71 3051.14 2214.24 966.47 -859.142 -3528.03 -6068.97 -4694.65 
9296.56 41685.1 71519.5 46077.4 18406.2 17745.9 18007.7 18041.4 17961.8 
17798.2 17583 17322 17015.3 16584 15843.4 13709.4 15159 6389 
288.399 -2802.06 -3276.47 1048.22 -15377.2 -71286.8 -251556 -956252 -2.04567e+06 
-1.18562e+06 -104667 264829 425016 413227 366984 332452 268270 203798 
184308 226083 319397 436721 484226 492892 490157 485554 481249 
477733 473687 463176 432028 335217 127267 -162124 -164906 -13370.3 
37916.1 47925.6 44803.6 41111.3 4634.32 4432.48 4214.96 3958.82 3632.11 
3135.02 2369.19 1211.96 -651.764 -3840.38 -8350.13 -10320.9 1435.67 27077 
38902 24506.4 16701.2 18147.9 18059.8 17953.7 17773.9 17538.7 17274.4 
16995 16717.6 16369.8 15478.5 11500.3 9639.5 4921.02 -586.023 -2054.43 
-192.461 3550.64 2136.88 10288.6 121250 921273 5.95753e+06 3.05891e+06 -5.69706e+06 
-4.05276e+06 -300939 275825 333952 322318 257028 175802 155283 203153 
295474 424489 484696 492848 489778 485104 480872 477852 475541 
468337 433876 254721 -201573 -186257 129851 105479 53150.8 46961.9 
41847 39007.9 4579.05 4373.36 4157.96 3921.26 3642.81 3227.64 2576.42 
1614.87 -163.378 -3931.21 -11284.4 -18747.3 -10351.7 13325.4 15612.1 10185.2 
15838.6 18295.6 18088.1 17876.3 17602.3 17295 16981.3 16684.7 16433.5 
16141.7 15061 10618 3748.5 10187.3 10395 5447.94 4029.25 7742.57 
17619.4 65618.1 306750 1.48635e+06 6.41684e+06 3.63373e+06 -4.12325e+06 -3.17515e+06 -201256 
251908 322474 318572 237812 133044 110100 174717 272828 406889 
479189 490097 487907 483680 479778 477590 478285 480346 465111 
309306 -191715 -240121 113493 112777 57996.2 44114.3 38304.1 37311.6 
4499.25 4280.44 4063.11 3844.4 3615.88 3320.8 2816.44 2153.11 741.3 
-3200.78 -14369 -29134.2 -19048.6 10671.8 16809.6 14485.9 17255.9 18344.1 
18123.1 17799.3 17440.2 17060.1 16693.9 16377.2 16155.6 15915 14787.1 
9907.77 1030.11 13647.4 21687.1 13533.6 7652.71 10720.3 23913.6 73727.8 
256518 834482 1.73878e+06 724236 517792 1.03462e+06 499385 350279 333592 
317918 210618 81194.9 57994.9 144018 254823 391238 470198 485115 
484723 481370 477867 476375 480545 496818 528256 528175 184060 
-211679 -118129 48904.9 51396.8 40875.5 37374 36846 4388.72 4153.06 
3923.93 3715.96 3529.8 3387.04 3140.58 2635.76 2243.11 -951.489 -9218.41 
-15765.2 -3922.25 15984.4 18027.5 17241 18105.6 18392.5 18131.3 17725 
17282.7 16828.9 16403.6 16058.6 15871.3 15753.4 14860.9 10783.2 1481.91 
13583.1 23076.9 15913.4 9850.55 11601.7 21151.2 50075.7 104766 48261.1 
-1.20637e+06 -1.23368e+06 2.97777e+06 3.73881e+06 1.11342e+06 452695 342400 306655 184322 
46556.5 28351.2 126404 246654 381348 460607 478694 480641 478355 
475099 473569 479744 509482 598952 809994 904884 353693 -60328.1 
25094.5 47657.8 41744.6 39227 37754 4253.37 3987.46 3734.88 3520.1 
3362.17 3348.71 3253.98 3095.29 3979.67 2973.96 3591.9 14351 20611.9 
22126.7 19345.9 18442.5 18567 18481.5 18127.4 17647.8 17127.6 16596.8 
16101.2 15709.9 15545.9 15600.7 14791.8 11537.7 4192.95 13583.2 22033.7 
16176.1 10517 10722.6 14143 19579.6 -22072.9 -411449 -2.12793e+06 -1.7864e+06 
3.67197e+06 4.57424e+06 1.21119e+06 429664 325274 290987 172143 45363.3 35723.5 
129932 249922 378828 451842 471838 476124 474910 471581 468703 
473044 506956 639015 1.049e+06 1.49755e+06 869957 90902.8 43505.6 52791.5 
46663.3 42137.1 38931.6 4088.77 3784.23 3489.18 3241.68 3088.14 3103.06 
3200.04 3206.48 5380.38 8498.67 11722.7 26874.9 28509.7 23567.1 20242.2 
19132.6 18866.7 18566.6 18117.9 17569.7 16975.1 16363 15781.4 15313.3 
15128.3 15388.6 14776.4 8543.86 2209.54 10564.8 20721.1 16271 9835.85 
8770.37 7357.38 -6564.59 -81013.1 -545043 -2.35977e+06 -2.83756e+06 2.02707e+06 3.34329e+06 
536980 242236 283264 280468 180351 73189.4 69627.8 152064 265287 
381589 444579 465402 471649 471392 467666 461897 458853 479992 
607415 1.14271e+06 1.62185e+06 780708 -34458.2 57686.6 61419.8 52162 44673.6 
40230.1 3902.44 3542.83 3182.46 2867.54 2649.95 2581.7 2881.62 2754.38 
6510.05 14835.3 19173.6 26016.9 26085.7 22867.2 20547.7 19502.3 19054.1 
18628.9 18103.6 17492.8 16827 16128.5 15442.1 14855.1 14555 14797 
14302.7 4304.39 257.115 9010.9 18899.3 13950.7 7337.3 6245.39 3399.88 