# vtk DataFile Version 4.2
vtk output
ASCII
DATASET RECTILINEAR_GRID
FIELD FieldData 6
base_index 1 3 int
0 56 0 
avtOriginalBounds 1 6 double
0 20 17.5 20 0 0 
MeshName 1 1 string
amr_mesh

CYCLE 1 1 int
5120 
TIME 1 1 double
7.5048822449e-05 
VisItExpressions 1 0 string

DIMENSIONS 33 9 1
X_COORDINATES 33 float
0 0.625 1.25 1.875 2.5 3.125 3.75 4.375 5 
5.625 6.25 6.875 7.5 8.125 8.75 9.375 10 10.625 
11.25 11.875 12.5 13.125 13.75 14.375 15 15.625 16.25 
16.875 17.5 18.125 18.75 19.375 20 
Y_COORDINATES 9 float
17.5 17.8125 18.125 18.4375 18.75 19.0625 19.375 19.6875 20 

Z_COORDINATES 1 float
0 
CELL_DATA 256
SCALARS P float
LOOKUP_TABLE default
-478.368 -478.63 -470.137 -459.16 -446.373 -431.373 -413.553 -391.552 -364.81 
-334.215 -299.521 -260.547 -217.204 -172.695 -127.123 -81.1349 -34.9506 7.95911 
47.3519 83.1209 115.06 141.927 163.634 181.246 194.764 204.778 211.307 
215.512 217.485 218.202 217.742 216.023 -412.514 -411.854 -404.97 -395.51 
-384.413 -371.562 -356.162 -337.47 -314.797 -288.711 -258.992 -225.711 -189.038 
-150.878 -111.695 -72.0994 -32.7181 4.40457 38.6627 69.8189 97.5061 121.05 
140.326 155.922 167.986 176.956 183.013 186.883 188.858 189.555 189.219 
188.185 -347.726 -346.448 -340.872 -332.932 -323.53 -312.714 -299.736 -284.133 
-265.248 -243.477 -218.639 -190.86 -160.386 -128.443 -95.5709 -62.3074 -29.3646 
1.95547 30.9832 57.4353 80.9074 101.014 117.625 131.077 141.542 149.362 
154.754 158.212 160.06 160.729 160.564 159.956 -283.582 -282.235 -277.743 
-271.264 -263.556 -254.722 -244.144 -231.493 -216.222 -198.616 -178.525 -156.061 
-131.471 -105.59 -78.9073 -51.8726 -25.1415 0.40776 24.1687 45.8632 65.1157 
81.6937 95.4756 106.66 115.398 121.958 126.542 129.503 131.131 131.75 
131.723 131.361 -219.64 -218.514 -214.988 -210.005 -204.058 -197.198 -189.051 
-179.278 -167.576 -154.006 -138.532 -121.23 -102.345 -82.3906 -61.7777 -40.8946 
-20.2535 -0.465644 18.007 34.8829 49.8912 62.8442 73.6717 82.4757 89.3887 
94.5927 98.2664 100.652 101.985 102.528 102.577 102.325 -156.604 -155.644 
-153.141 -149.599 -145.362 -140.461 -134.66 -127.703 -119.406 -109.773 -98.7918 
-86.5145 -73.1291 -58.9624 -44.3114 -29.4634 -14.7881 -0.69339 12.4925 24.5497 
35.2848 44.568 52.3526 58.6938 63.6868 67.4543 70.1294 71.8756 72.8635 
73.284 73.3504 73.2278 -93.8324 -93.1997 -91.7045 -89.5944 -87.0603 -84.1202 
-80.644 -76.4788 -71.5239 -65.7651 -59.2001 -51.8645 -43.8727 -35.4066 -26.6443 
-17.7651 -8.98886 -0.551519 7.35237 14.5836 21.0275 26.6063 31.2935 35.1169 
38.1328 40.4123 42.0365 43.1006 43.7077 43.9743 44.0268 43.9757 -31.2614 
-31.0408 -30.5449 -29.8446 -29.0008 -28.0195 -26.8597 -25.4713 -23.8218 -21.9043 
-19.7188 -17.2778 -14.6195 -11.8025 -8.88636 -5.93159 -3.01126 -0.202512 2.43009 
4.83925 6.98684 8.84723 10.4116 11.6886 12.6967 13.4593 14.0035 14.3608 
14.5658 14.6574 14.6774 14.6644 
FIELD FieldData 1
avtGhostZones 1 256 unsigned_char
0 0 0 0 0 0 0 0 0 
0 0 0 0 0 0 0 0 0 
0 0 0 0 0 0 0 0 0 
0 0 0 0 0 0 0 0 0 
0 0 0 0 0 0 0 0 0 
0 0 0 0 0 0 0 0 0 
0 0 0 0 0 0 0 0 0 
0 0 0 0 0 0 0 0 0 
0 0 0 0 0 0 0 0 0 
0 0 0 0 0 0 0 0 0 
0 0 0 0 0 0 0 0 0 
0 0 0 0 0 0 0 0 0 
0 0 0 0 0 0 0 0 0 
0 0 0 0 0 0 0 0 0 
0 0 8 8 8 8 8 8 8 
8 8 8 8 8 8 8 8 8 
8 8 8 8 8 8 8 8 8 
8 8 8 8 8 8 8 8 8 
8 8 8 8 8 8 8 8 8 
8 8 8 8 8 8 8 8 8 
8 8 8 8 8 8 8 8 8 
8 8 8 8 8 8 8 8 8 
8 8 8 8 8 8 8 8 8 
8 8 8 8 8 8 8 8 8 
8 8 8 8 8 8 8 8 8 
8 8 8 8 8 8 8 8 8 
8 8 8 8 8 8 8 8 8 
8 8 8 8 8 8 8 8 8 
8 8 8 8 
