# vtk DataFile Version 4.2
vtk output
ASCII
DATASET RECTILINEAR_GRID
FIELD FieldData 6
base_index 1 3 int
6 8 0 
avtOriginalBounds 1 6 double
0.46875 5.78125 0.3125 3.75 0 0 
MeshName 1 1 string
amr_mesh

CYCLE 1 1 int
10240 
TIME 1 1 double
0.00014738918426 
VisItExpressions 1 0 string

DIMENSIONS 69 89 1
X_COORDINATES 69 float
0.46875 0.546875 0.625 0.703125 0.78125 0.859375 0.9375 1.01562 1.09375 
1.17188 1.25 1.32812 1.40625 1.48438 1.5625 1.64062 1.71875 1.79688 
1.875 1.95312 2.03125 2.10938 2.1875 2.26562 2.34375 2.42188 2.5 
2.57812 2.65625 2.73438 2.8125 2.89062 2.96875 3.04688 3.125 3.20312 
3.28125 3.35938 3.4375 3.51562 3.59375 3.67188 3.75 3.82812 3.90625 
3.98438 4.0625 4.14062 4.21875 4.29688 4.375 4.45312 4.53125 4.60938 
4.6875 4.76562 4.84375 4.92188 5 5.07812 5.15625 5.23438 5.3125 
5.39062 5.46875 5.54688 5.625 5.70312 5.78125 
Y_COORDINATES 89 float
0.3125 0.351562 0.390625 0.429688 0.46875 0.507812 0.546875 0.585938 0.625 
0.664062 0.703125 0.742188 0.78125 0.820312 0.859375 0.898438 0.9375 0.976562 
1.01562 1.05469 1.09375 1.13281 1.17188 1.21094 1.25 1.28906 1.32812 
1.36719 1.40625 1.44531 1.48438 1.52344 1.5625 1.60156 1.64062 1.67969 
1.71875 1.75781 1.79688 1.83594 1.875 1.91406 1.95312 1.99219 2.03125 
2.07031 2.10938 2.14844 2.1875 2.22656 2.26562 2.30469 2.34375 2.38281 
2.42188 2.46094 2.5 2.53906 2.57812 2.61719 2.65625 2.69531 2.73438 
2.77344 2.8125 2.85156 2.89062 2.92969 2.96875 3.00781 3.04688 3.08594 
3.125 3.16406 3.20312 3.24219 3.28125 3.32031 3.35938 3.39844 3.4375 
3.47656 3.51562 3.55469 3.59375 3.63281 3.67188 3.71094 3.75 
Z_COORDINATES 1 float
0 
CELL_DATA 5984
SCALARS P float
LOOKUP_TABLE default
-11337.2 -11587.2 -11820.7 -12019.2 -12153.9 -12222.6 -12218.1 -12176.4 -12125.5 
-12064 -12002.9 -11879.8 -11674.6 -11358.6 -10955.2 -10514.4 -10072.6 -9673.23 
-9326.54 -9031.07 -8787.89 -8598.87 -8465.55 -8377.72 -8330.53 -8299.77 -8277.99 
-8209.57 -8108 -8013.92 -7984.53 -8067.49 -8282.81 -8658.84 -9200.76 -9872.26 
-10538 -10626.4 -9839.59 -7446.33 -3777.98 410.926 4248.54 6330.21 6431.89 
5857.93 5282.11 5884.03 7395.93 8654.14 9698.45 9716.55 8095.55 5988.29 
4586.1 4513.45 5009.32 6035.99 6811.04 7539.63 8077.68 8470.9 8753.67 
8944.6 9071.93 9142.39 9186.36 9200.64 -12651.3 -12947 -13226 -13460.4 
-13621.2 -13692.1 -13675.8 -13612.9 -13546.9 -13501.6 -13459.2 -13356.7 -13136.5 
-12775.4 -12299.4 -11775.9 -11260.9 -10803.8 -10416.3 -10096.2 -9842.3 -9654.09 
-9535.92 -9475.42 -9466.34 -9474.9 -9469.94 -9391.63 -9249 -9099.51 -9018.66 
-9072.63 -9267.5 -9665.6 -10347.8 -11275.5 -12257.1 -12921.3 -12315 -9376.82 
-4849.27 681.813 5517.27 8023.31 7771.64 6402.24 5180.16 5861.22 8130 
9690.5 10917.4 10936.3 8547.44 5515.83 3968.27 4131.01 5176.35 6477 
7570.27 8428.56 9055.98 9500.18 9807.4 10014.9 10147.6 10225.5 10271.7 
10287 -13959.6 -14306.8 -14637.3 -14916.7 -15105.4 -15178.8 -15140.9 -15044.4 
-14960.4 -14931.2 -14928.5 -14860 -14633.9 -14218.4 -13655.9 -13034.3 -12436.6 
-11918.6 -11494.9 -11157.5 -10901.3 -10723.6 -10631.7 -10614.8 -10662.7 -10727.6 
-10752.5 -10660.9 -10461.9 -10230.9 -10078.3 -10083 -10230 -10621.9 -11446 
-12747.7 -14248.1 -15625.3 -15453.6 -11878.1 -6230.55 982.887 7326.06 10332.3 
9265.18 6689.13 4442.69 5454.06 9024.53 10754.1 12396.2 12060.4 8597.99 
4158.34 2577.8 3375.75 5088.77 6898.37 8315.42 9346.49 10060.5 10545.1 
10874.4 11091 11228.5 11307 11356.1 11375.8 -15259.6 -15665.7 -16056.9 
-16390.3 -16613.1 -16687.5 -16614.8 -16467.1 -16353.6 -16349.2 -16410.8 -16400 
-16175.9 -15695.8 -15024.6 -14285.1 -13592.1 -13012.2 -12559.9 -12215.9 -11967.4 
-11809.8 -11755.7 -11798.3 -11924.7 -12068.4 -12137.7 -12031 -11754.1 -11409.5 
-11160.1 -11097.5 -11167.1 -11483.9 -12452.9 -14296.9 -16470.3 -18279 -18955.3 
-15176.8 -8209.7 1190.47 9882.36 13547.9 11203.2 6548.85 2490.36 4152.58 
10443.4 11753.5 13805.2 13340.2 7941.49 1310.57 20.6523 2099.25 4835.44 
7300.12 9101.81 10311.1 11100.7 11614.3 11955.6 12174.6 12310.9 12387.7 
12439.8 12466.5 -16549.2 -17022.4 -17485.9 -17886 -18152.1 -18226.4 -18102.2 
-17875.3 -17714.1 -17745.5 -17908.6 -17991.1 -17780.1 -17219.7 -16409.8 -15526.3 
-14723.9 -14083.6 -13612.9 -13274.9 -13044.2 -12915.6 -12910.3 -13029.8 -13260.6 
-13511.5 -13644.4 -13520 -13135.6 -12631.7 -12255.3 -12121.6 -12067.9 -12204.5 
-13272.1 -15679.6 -18731.2 -21039.7 -22830.8 -19605.4 -11355.6 1161.04 13077.2 
18168.5 14609.1 6525 -1555.34 1351.4 12989.4 12714.1 14619.1 14085.5 
5893.67 -4235.08 -4193.17 224.704 4452.7 7757.86 9984.24 11347.2 12190.4 
12715.2 13055.3 13266 13393.9 13464.2 13520.5 13557.5 -17824.9 -18375.4 
-18925.4 -19409.3 -19733.4 -19809.2 -19610.6 -19262.5 -19022.9 -19103.8 -19424.8 
-19653.2 -19470.4 -18804.9 -17814.4 -16752.2 -15824.4 -15127.8 -14653.9 -14337.4 
-14135.1 -14042.9 -14095 -14307.7 -14672.6 -15066.7 -15288.7 -15144.1 -14611.8 
-13884.6 -13348.2 -13161.3 -12952.4 -12732.4 -13780.7 -16817.6 -21151.3 -24299.6 
-26981 -25263.5 -16087.8 952.848 17933 25269.6 17877.9 5773.17 -6514.58 
-1125.72 19416.7 15692.5 15783.8 11598.9 24.7042 -14780.4 -10846.8 -2243.85 
4108.81 8368.73 11006.2 12492.5 13329.9 13841.7 14165.7 14357.9 14469.9 
14532.1 14596 14650.4 -19083.2 -19721.8 -20375.8 -20966.6 -21371.5 -21455.5 
-21153.4 -20619.7 -20249.6 -20399.4 -20963.9 -21417.6 -21281.3 -20471.9 -19240.7 
-17952.9 -16881.4 -16138.1 -15684.8 -15410 -15246.3 -15194 -15307.4 -15627.8 
-16161.3 -16747.2 -17095 -16929.3 -16195.7 -15152.2 -14410.3 -14237 -13875.3 
-12983.6 -13815.3 -17748 -23861.8 -28053.9 -31594.7 -32632.5 -21565.9 2175.56 
24651.2 36851.4 20317.2 5086.88 7861.67 21705.6 37121.2 30980.4 30936.3 
8410.62 -12815.2 -36207.1 -20759 -4949.16 4019.77 9255.68 12226.3 13711.6 
14501.1 14980.6 15276.9 15440.5 15531 15585 15663.6 15741.8 -20318.9 
-21057.9 -21836.7 -22565.1 -23085.4 -23195.1 -22753.8 -21936.6 -21347.4 -21591.3 
-22532.8 -23331.3 -23262.6 -22247 -20687.3 -19111.8 -17876.2 -17104 -16707.3 
-16500.1 -16381.6 -16365.8 -16536.5 -16974.6 -17718.4 -18562.4 -19089.3 -18908.6 
-17908.5 -16409.4 -15391 -15401.8 -14973.1 -12859.2 -13118.7 -18836.3 -26222.2 
-30978.7 -37032.2 -43105.8 -28980.4 4059.19 17242.9 19206.4 4799.93 6888.09 
24968.8 42565.3 49004.7 49853.1 53993.2 23503.1 -25015.7 -72542.5 -36540.1 
-7053.48 4677.4 10575 13631.1 14986 15683.2 16125.3 16382.8 16504.3 
16567.1 16616.2 16721.3 16837.2 -21526.1 -22377.4 -23305 -24211.3 -24899.7 
-25072.4 -24452.9 -23203.2 -22244.3 -22613.1 -24142.7 -25467.6 -25486.3 -24163.8 
-22148.5 -20203.1 -18782 -18013.6 -17728 -17620.8 -17548.2 -17556.1 -17770.9 
-18328.5 -19333.5 -20530.9 -21316.5 -21145.4 -19806.4 -17623.1 -16167.3 -16741.1 
-16574.5 -12310.5 -11212.7 -20070.7 -29157.5 -32898.7 -42211.9 -57230.7 -41218.5 
3245.97 -1400.35 -23446.2 -24194.2 1593.67 21465.8 34450.3 45657.7 56121.5 
61951.1 35235.8 -30766.2 -105427 -55165.4 -7270.15 6367.02 12309.5 15116.1 
16233.9 16857 17277.1 17479.1 17534.7 17561.7 17613.5 17768.6 17925.8 
-22696.5 -23671.8 -24774.5 -25909.3 -26843.7 -27154 -26324.2 -24415 -22826.5 
-23355.5 -25813.7 -27941.1 -28053.4 -26261.6 -23605.6 -21185.4 -19559.4 -18847.3 
-18754.6 -18788.7 -18751 -18756.2 -18989 -19652 -20983.3 -22672.9 -23833.5 
-23726.5 -21980 -18743.4 -16480.7 -18456.9 -19462.4 -11548.2 -7863.48 -20768.5 
-33803.6 -36733.6 -46442.4 -60625.5 -39097.6 14389.1 -6130.27 -35122.7 -33211.9 
-4166.97 11472.8 22339 41909.6 54982.5 62148.8 48006.4 -24492.1 -125106 
-72860.9 -3031.33 9706.65 14587.5 16568.5 17356 18005.3 18450.6 18557.7 
18507.2 18480.6 18564.5 18799.2 19028.7 -23820.9 -24928.6 -26233 -27657.5 
-28950.5 -29538.7 -28497.5 -25586.1 -22915.4 -23633.9 -27583.2 -30934.7 -31110.7 
-28583.6 -25020 -21997.4 -20148.1 -19580 -19809 -20031.6 -19994.9 -19955.4 
-20164.8 -20886.2 -22621.8 -25008.5 -26714.1 -26765.6 -24567.2 -19779.6 -16000.3 
-20661.7 -24910.8 -12111.2 -4587.91 -18841.1 -39250.4 -49087.9 -53017.9 -46882.4 
-7746.3 39953.8 5982.04 -23425.1 -25800.8 -8357.67 2736.71 12982.7 38210.4 
54962.1 62215.2 70812.5 45162.6 -64151.9 -44638.1 7452.67 14846.9 17410.2 
17948.2 18286.9 19155 19692.3 19605.6 19382 19284.1 19438.6 19809 
20099.7 -24887.4 -26131.6 -27660.6 -29443.4 -31251 -32370.9 -31204.8 -26773 
-22228.3 -23143.8 -29512.2 -34752.4 -34863.6 -31170.5 -26317.4 -22546.4 -20465.4 
-20183.1 -20939.2 -21407.2 -21285.5 -21134.9 -21266.1 -21927.3 -24143.9 -27546.5 
-30034.1 -30346.4 -27949.1 -20791.5 -14340.3 -22218 -31479.8 -16005.1 -7243.77 
-5138.47 -26305.8 -57147.7 -63669.1 -42997.6 6477.61 61383.2 21431.5 -16384.4 
-25746.1 -16143.6 -8636.75 -858.274 31147.5 57390.3 61358.4 88239.8 116633 
64411.2 17023.1 21991 21023.4 20669.1 19374.5 19040.2 20531.6 21073.4 
20589.9 20094.9 19904.5 20209.8 20788 21209.2 -25883.9 -27260 -29027 
-31235.1 -33761.1 -35856 -34862.2 -28160.1 -20275.8 -21367.7 -31767 -39894.9 
-39597.3 -34050.1 -27364.4 -22715.8 -20388.9 -20613.1 -22236.5 -23006.4 -22601.8 
-22280.4 -22275.9 -22622.6 -25409.3 -30358.4 -33935 -34689.4 -32434.6 -22703.1 
-12704.3 -22256.4 -29559.7 -20723.3 -15604.4 6098.83 -2448.69 -47928.6 -72514.6 
-59273.7 4610.01 76141.2 49183.8 -2558.05 -26958.3 -19918.3 -26534 -26851.1 
28538.9 66006.8 61579.3 93386.6 131623 105211 47613.5 33655.1 26685.5 
24016.9 21046.4 20116.9 22187.7 22584.1 21536.6 20538.2 20245.6 20817 
21722.5 22311.6 -26796.7 -28289.7 -30289.9 -32971.9 -36454.3 -40272.8 -40245.5 
-30187.9 -16517.8 -17212.4 -34565.9 -47225.9 -45710.6 -37210 -27968.8 -22343.9 
-19741.9 -20844.9 -23930.5 -25007 -23918.5 -23367.2 -23218.4 -22750.3 -26222.5 
-33591.2 -38572 -39587.1 -39188.2 -27447.3 -15625.7 -22791.8 -22452.6 -21778.7 
-20634 -538.879 4338.27 -25316.5 -37676.4 -50070.2 -26773 50839.7 90942.1 
43644.9 12671.3 31366.7 -26047.6 -57037.6 38389.7 87445.5 63368.7 90590 
120977 96358 52582.9 38756.2 30078.9 26852.3 22979.3 21724.6 24103.8 
24288.6 22270.5 20453.1 20171.3 21224.6 22585.5 23477.8 -27613.5 -29194.2 
-31395.2 -34550.8 -39205.5 -46035.8 -49084.1 -34018.1 -9894.78 -9313.03 -38621.5 
-58497.1 -54007.7 -40666.3 -27805.2 -21186.1 -18324.6 -20782 -26407.5 -27686.8 
-25177.4 -24355.6 -24278.2 -21902.6 -25915.8 -37856.1 -44294 -44991.2 -46172.4 
-33071.1 -22905.8 -22561.7 -13344.2 -18052.7 -20434.8 -12738.9 -7688.09 -3970.38 
22952.4 -15637.6 -75710.4 -11707.9 111223 92851.9 60591.4 116060 39904.7 
-21288.7 93205.7 129161 64560.4 76826.3 76495.7 50666.3 39611.5 37934 
30176.8 28054 25050.3 23847.9 26102.8 25979.5 22455.3 19303.4 19403.4 
21363.6 23371.7 24675.6 -28324.1 -29948.9 -32283.2 -35822.8 -41717.4 -53615.9 
-62656.5 -41453.6 -2574.89 4114.02 -38640 -72755.7 -65972 -44469.6 -26361.9 
-19063.6 -15742.6 -20110.9 -30514.5 -31652.7 -26101.1 -25282.6 -25762.7 -19265.9 
-22892.5 -43142.6 -51456.2 -50630.2 -49862.1 -32431.5 -26200.3 -24040.9 -9538.84 
-15800.3 -18887 -26685.3 -27200.1 -2451.92 43516.4 73.5341 -104857 -61827.1 
120122 117573 59526.4 184865 102322 -13162.8 167580 191790 61019.3 
68508.7 51468.3 19470 22278.7 29039.7 26387.9 27611.6 27118.5 25834.4 
27608.9 27052.7 21457.6 16504.5 17631 21254.1 24132.8 25978.1 -28923.5 
-30537 -32894.9 -36627.1 -43367.3 -61510.5 -73883.2 -46929.9 -6694.03 13170.2 
-16598.9 -68677.5 -75222.9 -44862.8 -21651 -16781.3 -11063.8 -18337.7 -37727.7 
-37799.9 -26465.3 -26421 -28841.9 -13292.2 -15175.5 -43792.4 -52941.7 -44298.7 
-34449.1 -22286.4 -21799.5 -25927.5 -12684.9 -19534.9 -23354.4 -44935.1 -54026.7 
-17045.9 37168.2 3806.15 -142275 -130066 160573 162438 4818.32 286375 
104761 -176407 199752 237784 36109.3 44183.8 39789.2 19400.3 16092.4 
20507 21588.9 26433.1 28535.4 27006.2 27733.6 26838.4 19153.2 11908.6 
15174.4 21014.1 24918.2 27336.7 -29411.7 -30953.6 -33208.8 -36822.4 -43586 
-61451.8 -62439.2 -29070.6 -8184.56 10901.3 491.756 -48437.5 -66542.8 -36000.4 
-16966.8 -17760.3 -8616.88 -17326.6 -50254.1 -48391.3 -25558.2 -27543.1 -36892.1 
-12670.2 -11752.5 -43823.9 -46383 -31347.4 -15277.8 -12540.1 -17145.8 -18400.4 
-12973.2 -15331 -22130.2 -50472.4 -82101.3 -46316 44816.8 27404 -225353 
-270043 276475 281804 -98781.6 304084 110413 -249834 345050 324620 
-19901.1 24898.6 23124.5 7944.6 7471.04 12428.8 16439 24553.8 28665.7 
25162.6 24857.7 24578.8 16176.4 7093.52 12661.7 20849.4 25998.7 28891.4 
-29797.4 -31211.9 -33237 -36446.8 -42469.7 -55545.9 -41571.2 -3499.06 1685.58 
3629.56 -5180.77 -36186.2 -49043.7 -29915.6 -22539.9 -34689 -34904.6 -34134 
-62833.5 -60166.6 -35686 -33561.1 -53716.7 -48396.4 -55834.4 -55711.6 -43391.7 
-31988.9 -16314 -11897.7 -10396.5 -7023.1 -2779.92 -9478.96 -14717.5 -42559.1 
-102170 -83273.4 73212.7 108098 -354156 -599466 345731 609834 65278.4 
151558 268628 341100 710303 287715 -211104 54933.7 49474.9 -740.51 
-1661.58 4366.59 10309.9 20853.2 26112.5 20808.2 17535.7 19287.6 13020.4 
3575.61 9912.51 21342.7 27640.6 30767.5 -30094 -31342.2 -33044.9 -35614 
-40227.3 -45612.8 -23419.4 8896.38 4967.21 -718.861 -10909.6 -30732.4 -39757.5 
-32893.7 -33114 -53099.9 -66345.5 -55535.9 -61325.2 -66051.4 -68914.7 -50297.3 
-70238.6 -86055.5 -98633.5 -71441.7 -47736.9 -35803.1 -22688.2 -13356.2 -4526.43 
5643.44 8983.42 -2949.05 -10041.3 -36694.1 -111422 -127783 129849 313536 
-332903 -1.02351e+06 -107417 625315 360031 161261 454859 843153 761440 
107177 -127614 268743 116191 -16954.6 -13394.7 -4124.84 2808.34 15062.7 
19975 10326.4 4747.12 10659.2 10100.4 2466.84 8527.34 22870 29985.7 
33028.3 -30321.6 -31385.7 -32747.3 -34388.8 -36585.8 -32413.7 -6370.89 14909.8 
4757.19 -4159.94 -14533 -28530.6 -36223.1 -35557.1 -38837.5 -54155.4 -65259.3 
-57635.1 -57559.7 -64778.4 -79964.7 -58671 -70836.1 -86404 -93679.3 -72902.4 
-54148.4 -39330.9 -25750 -14215.8 320.817 16354.6 17600.7 2662.24 -4151.96 
-37466.6 -137837 -208456 200608 740405 348011 -369945 -116952 371398 
425671 328312 506755 735314 564438 182676 218350 308129 21896.7 
-67594.4 -28478.4 -12331.3 -5842.88 7879.71 8504.06 -9124.05 -15656.9 -1270.68 
8196.88 4987.71 10556.3 26022.8 33203.2 35726.2 -30499.6 -31391 -32449.8 
-33492.6 -33780.1 -29668.7 -5836.76 13369.8 3485.51 -7387.93 -17545.5 -28204.4 
-34960.1 -37242.6 -41730.8 -52106.8 -59191.2 -55570.1 -55946.6 -60881.9 -68490.4 
-59191.5 -68863 -80518.4 -84005.1 -71677.6 -58421.2 -42065.1 -28522.1 -15473.7 
2435.93 22381 24543.7 10459.3 5712.65 -31707.6 -178023 -390585 177914 
1.27142e+06 1.20601e+06 582564 397368 376726 431497 410070 516965 633779 
536141 368668 273583 129209 -14241.8 -48639 -37852.3 -17994.1 -16095.2 
47.2965 -6744.52 -35902.2 -42273.7 -15028.5 8151.55 12038.7 17204.2 31019.8 
37161.8 38752.6 -30647.5 -31391.9 -32252.3 -33128.4 -34037.7 -38269.1 -21498 
5715.32 1654.21 -10904.4 -20584.3 -29047 -34917.6 -38421.5 -43238.6 -50888.2 
-56248.7 -55820.8 -56992.4 -61062 -64898.7 -63105.7 -69150.3 -76978.8 -78512.2 
-70015.6 -59172 -43761.1 -30771.6 -17328.1 2045.21 24889.7 32353.7 23627.6 
26437.9 -7943.92 -221319 -748554 -437581 928032 1.19793e+06 704287 504233 
439831 455859 458966 524382 585051 529340 423949 323523 384338 
447023 177484 -19044.3 -19166.4 -30073 -7155.21 -20621.1 -62772.8 -71980.8 
-27768.4 10974.6 23392.4 27947.4 37717 41475.2 41931.2 -30777.1 -31404.1 
-32145.1 -33076.6 -35003.2 -44129.1 -37045 -10563.3 -5944.9 -15728.5 -24030.2 
-30729.6 -35551.2 -39310.7 -44085.6 -50283.5 -54978.2 -56593 -58541.7 -62284 
-65441.6 -66102.5 -70076.6 -75053.5 -75066.1 -68294.6 -58521.2 -45356.2 -33050.6 
-19602.2 438.229 26237.7 41244.4 42980.3 56302.2 56287.5 -168120 -1.21254e+06 
-1.34538e+06 116060 722575 664253 534028 481882 482544 491343 531949 
564673 533964 477675 465678 714905 1.00656e+06 746544 252918 -3229.1 
-54869.4 -10989.8 -26438 -80806.1 -94517.2 -34741.5 17551.8 37399.8 40859.6 
45333.5 46225.2 45224.7 -30897.5 -31428.7 -32083.4 -33029.9 -35125.8 -42105.5 
-40771.9 -24334.7 -15875.6 -21593 -28252.2 -33043.4 -36534.1 -39992.5 -44621.2 
-50103 -54597.8 -57330 -60054.4 -63597.9 -66573.2 -68232.9 -71021.1 -73772.5 
-72789.8 -67016.5 -58448.6 -47186.8 -35538.1 -21974 -689.185 28205.3 50222.9 
63595.9 84809.9 154312 175221 -1.40137e+06 -1.93034e+06 -186219 508074 597050 
544180 509865 506262 514820 540592 559516 544322 519954 544093 
747496 1.07047e+06 957882 285444 -149517 -105503 -5089.17 -21245.8 -84167.3 
-97462.9 -31792.2 28301.8 51811.7 53412.4 52795.2 50875.5 48505.6 -31013.6 
-31463.2 -32037.3 -32908.8 -34631.8 -38354 -37952.7 -30311 -23158.1 -27845.1 
-33275.6 -35821.1 -37606.2 -40430.5 -44981.9 -50208.5 -54710.8 -58090.6 -61317.9 
-64788 -67700.7 -69681.6 -71593.5 -72797.6 -71114.6 -66037 -58928.4 -49371.2 
-38300 -24152.7 -1409.26 30178.5 58126 83875.8 105041 258927 1.05105e+06 
-299546 -1.67265e+06 -323830 454285 562237 549281 529604 525835 532982 
550055 562224 556408 549345 580282 697348 791067 321243 -607839 
-708990 -172529 25699.7 -2846.54 -65302.4 -76380.4 -16994.9 42597.2 65002.2 
64101.3 59500.3 55158.5 51658.3 -31129.1 -31507.2 -32000.1 -32749.6 -34043.8 
-36067.1 -36122.1 -33316.7 -30253.7 -34500.9 -39115.1 -38926.4 -38482.8 -40484.2 
-45205.4 -50522.6 -55113.3 -58845.4 -62359.7 -65799.5 -68650.4 -70589.2 -71824.7 
-71903.9 -69713.8 -65165.3 -59893.7 -51906.3 -41214.5 -26317.9 -1638.49 30908 
66117.6 104266 93430.6 150961 1.57882e+06 1.92176e+06 397477 90566.6 480656 
559588 556729 544282 541550 547622 559831 568778 568228 569222 
594054 652770 627005 152119 -475406 -338994 82528.7 108988 25727.8 
-30158.2 -39085.1 8382.1 58736.6 75685 72263.4 65064.5 59026.8 54529 
-31247.6 -31562.2 -31975.9 -32592.6 -33536.7 -34728.9 -35155.1 -34759.6 -35904.3 
-41272.9 -45979.4 -42293.8 -38790 -39901.6 -45301 -51033.4 -55709.7 -59571.1 
-63212.7 -66623.2 -69369 -71113.4 -71758.4 -70987.1 -68361.9 -64468.1 -61293.1 
-54810.8 -43937.7 -27508.4 -1704.78 31111.8 76585.6 129055 47168.1 -754936 
-17629.5 2.04259e+06 2.19082e+06 723219 582639 577821 566238 555763 553909 
559691 569559 577115 579278 582833 599409 628739 616904 586255 
925622 1.27662e+06 822469 216017 45527.5 7487.27 3893.38 38109.5 73791.9 
83408.1 77912.3 69389.2 62377.7 57095.7 -31372 -31631.7 -31972.4 -32466.7 
-33151.2 -33925.1 -34584.4 -34625.3 -35444.2 -44781.1 -53677.8 -45482.8 -37959.6 
-38280.2 -45324.9 -51812.1 -56466.9 -60240.7 -63891.7 -67265.1 -69870.1 -71336.4 
-71445.8 -69978.3 -66851.2 -63389.1 -62792.2 -57376.7 -46048.2 -27303.9 -899.064 
32754 88281.1 172031 161667 -1.55608e+06 -3.57959e+06 -244943 1.76805e+06 895639 
650080 598634 575131 564187 563174 569609 579025 586311 589505 
592680 601231 613685 612038 674249 1.01072e+06 1.24268e+06 700174 102087 
27749.2 40207.2 44588.9 65504.8 85593.1 88615.6 81677.1 72657.2 65139 
59310.3 -31505.5 -31719.3 -31997.1 -32393.2 -32891.6 -33419.9 -33869.1 -33718.6 
-32434.1 -34889.7 -42691.4 -39652.5 -34959.6 -35015 -45487.1 -53048.5 -57387.2 
-60812 -64394.2 -67746.6 -70188.8 -71330.8 -70940.2 -68868.4 -65200.6 -61619.6 
-62489.4 -58391.8 -46660 -25370.7 1045.39 35091.5 98210.4 197833 575722 
-864101 -4.0379e+06 -1.6278e+06 944908 834648 673117 611265 580804 568898 
569333 577579 588191 596014 599368 600118 600763 600723 589891 
564704 317297 -242876 -620850 -377398 -15900 72667.9 80519 87355.8 
94314.9 92095.7 84209.5 75090 67374.9 61181.7 -31651 -31828 -32057.8 
-32381.8 -32756.7 -33136.2 -33361 -32756.9 -29430.6 -22248.1 -23965.3 -28214.2 
-29717.4 -29167.3 -46369.9 -55092.8 -58474.1 -61201.4 -64700.5 -68103.4 -70373 
-71150.6 -70285.3 -67710 -63564.8 -59882.6 -62374.9 -59061.2 -44592.6 -21785.2 
4083.06 36449.4 103391 157884 517641 -970552 -2.57842e+06 -239118 758115 
779122 675960 613855 581028 568946 572001 583664 597134 606520 
609517 606196 599332 589173 570643 524667 300179 -257165 -859647 
-585589 15877 120887 112020 103822 100428 94458.1 85882.7 76837.6 
69081 62684.4 -31809.8 -31960.2 -32159.1 -32433.4 -32749 -33030.9 -33264.6 
-32677.6 -29740.6 -22394.5 -20397.4 -24081.5 -22090.8 -18869.8 -49357.9 -58467.4 
-59663.7 -61262.9 -64777.1 -68400.8 -70490.6 -70846.2 -69496.6 -66560 -62141.5 
-59542.7 -64795.3 -61617.5 -42869 -18540.6 6964.21 39078.7 114096 144275 
115697 -1.71135e+06 -1.24147e+06 888634 779214 746802 668893 608286 574499 
563113 570475 587830 606215 618443 620772 612208 597344 578094 
555252 527968 520087 664219 362971 113212 256172 194564 140134 
115468 104678 95974.1 86937.4 78044 70344.8 63862.5 -31984.6 -32116.7 
-32299.6 -32543.9 -32843 -33074 -33408 -33336.9 -31922.7 -28417.1 -26897.1 
-33112.7 -29537.1 -25983.9 -59956.7 -64212.3 -60719 -60712.4 -64580.8 -68754.8 
-70621.3 -70465.5 -68616.9 -65392.1 -61030.1 -59641.3 -66875.1 -62966.6 -43150.5 
-18737.8 6587.8 42754.7 123647 146365 -738632 -3.14019e+06 -46299.2 1.00835e+06 
790912 723648 654905 594486 559324 549711 563635 589707 615846 
632008 633058 618544 594752 564924 537156 520536 545359 712876 
839005 872113 617114 264760 159437 122125 106776 96651 87478.5 
78836.6 71240.6 64684.4 -32173.3 -32299 -32475.1 -32714.9 -33029 -33299 
-33731 -34062.3 -33991.3 -33545.9 -36301.8 -53522.6 -75894.5 -67883.2 -81486.7 
-72112 -61210.9 -59068.4 -64078.4 -69369.9 -70877 -70047.6 -67644 -64164.7 
-59962.1 -58655.7 -65092.2 -60166.4 -42599.8 -21025.9 4043.68 46651.6 160141 
265649 -1.10132e+06 -4.4315e+06 -443080 737259 736459 695965 636911 572188 
534373 528477 550652 588927 626185 647048 646154 625136 590495 
547402 511842 496550 493286 367648 488869 878982 701731 273021 
160988 122674 106581 96431.9 87523.5 79214 71767.3 65032.9 -32380.1 
-32504.6 -32685.7 -32944.8 -33294.8 -33688.2 -34195.2 -34876.6 -35854.8 -37416.7 
-43215.8 -62831.1 -90997.8 -86917.3 -93688.4 -74451.3 -58227.5 -55455.8 -63293.7 
-70630.4 -71403.3 -69622.3 -66583.6 -62859.9 -58674.9 -56541.6 -60059.1 -54745.2 
-41100.9 -24861.3 -2331.9 42670.6 193293 656690 369850 -1.77474e+06 -64655.7 
582120 676245 665716 615174 545277 502135 501806 531744 585008 
636591 663128 659646 631208 583380 523807 477474 464270 469156 
397931 503468 649266 433550 202180 143428 117327 104393 95387.2 
87157 79304.1 72140.5 65336.4 -32601.3 -32732 -32930.3 -33218.5 -33624.5 
-34153.8 -34826 -35891.7 -37432.4 -40280.3 -46806.7 -60469.2 -74136.5 -72384.5 
-66657.5 -47015 -43320.1 -48968.5 -62481.4 -73341.1 -72384 -69215.5 -65433.3 
-61471.5 -57065.7 -53949.7 -53750.5 -48622.1 -38730.2 -28696 -18475 10887.2 
113736 648429 1.40642e+06 550196 435692 562315 637907 640536 593547 
517053 468753 474850 510019 577068 646378 679344 672120 635204 
572658 493818 434379 425884 460115 531088 718079 510966 132661 
107403 117077 108464 100815 93702.4 86530.6 79207.3 72400.9 65664.2 
-32839.4 -32979.1 -33202 -33525.1 -34002 -34652.2 -35512.9 -36903.6 -38790.7 
-42210.2 -48166.6 -57950.5 -65307.7 -61097.6 -42809.2 -24453.5 -28062.6 -43054.5 
-65574.9 -78669.9 -73833.7 -68778.8 -64142.3 -60061.1 -55401.1 -51374.7 -48372.4 
-43147 -35574.1 -31402.9 -35774.1 -44869.6 -79942 76621.9 603699 617607 
574462 564196 613574 620416 575528 495629 443781 457367 494245 
569346 654938 693784 681118 635266 558155 459523 385531 381816 
440106 557253 726633 439667 44732.7 55040.1 95016.8 99313.8 96533.8 
91754.4 85797.9 79047.2 72493.9 66017.5 -33089.2 -33244.5 -33492.5 -33861.2 
-34405.4 -35156.1 -36213.6 -37771.3 -39985.2 -43452.8 -48670.9 -55658.5 -59944.9 
-56163.6 -41695.3 -26035.7 -33569.9 -61770.6 -86108.7 -84853 -74735.4 -68757.1 
-62553.9 -58757.5 -53885 -49096.8 -44438.2 -38664.2 -31516.1 -30033 -47365.8 
-94606.9 -291155 -738342 -1.13975e+06 -430246 365177 521636 593155 604032 
564900 490514 440442 456008 488119 564044 659715 702445 683158 
629367 540376 423989 335352 334735 407603 514089 639303 391752 
37226.8 30498.8 82543.5 91808.6 92435.9 89531.6 84795.4 78388.7 72386 
66940 -33353.8 -33523.6 -33799.2 -34215.1 -34820.1 -35660.2 -36867.7 -38570.5 
-40932.3 -44281.2 -48790.8 -53921.7 -56750.5 -54111.6 -45571.5 -37780.8 -49747.6 
-89645.6 -106068 -92268.1 -79205.3 -70466.4 -60501 -57729.2 -52644.9 -47169.9 
-41460.4 -34851.8 -26967.3 -25517.6 -45905.4 -105167 -387023 -1.31017e+06 -1.96183e+06 
-608269 433251 522469 584202 593139 563426 503412 458776 469363 
489026 562212 656075 698577 674143 616051 520487 392023 290488 
290410 371905 457784 511780 242418 -12013.3 39976.9 79277.9 86778.1 
88923.7 87529.2 84083.4 77573 71730.6 67289.6 -33626.1 -33815.7 -34118.9 
-34575 -35230.3 -36156.4 -37468 -39265.2 -41676.7 -44855.4 -48770.2 -52760.4 
-54901 -53524.6 -49160.8 -47409.3 -61129.7 -90786.6 -108238 -101547 -83654.6 
-63700.5 -55707.5 -57090.9 -51734.8 -45709 -39078.2 -31498.4 -22562 -19172.3 
-24467.4 -51489.4 -273648 -1.2141e+06 -1.5839e+06 44592.3 685761 557407 586084 
584622 566058 526194 488649 486476 495765 559221 639050 675060 
651307 594984 500146 368708 260245 259153 343904 406066 349862 
104192 57098.2 122011 85087.5 82790.3 86214.1 85831.1 83626.4 77277.2 
69847.9 66527.2 -33909.8 -34118 -34446.4 -34934.7 -35636.4 -36628.5 -38005.6 
-39853.3 -42261.3 -45271.8 -48733.4 -52029.5 -53938.8 -53640.8 -52096.9 -53557.6 
-65317.4 -85828.9 -101563 -98031.2 -68247.1 -41434.6 -52429 -59319.6 -51457.8 
-44602.1 -37272.2 -28488.5 -18177.9 -9866.08 4785.95 32160 11142.6 -549329 
-1.45428e+06 -159211 584309 588112 594885 573079 563372 539639 513064 
501812 504044 551265 607259 632097 616634 567910 481276 358241 
252994 250232 333489 384628 305614 187262 206773 186301 86585.2 
80341.3 83846.6 84136.2 82356.2 77109.4 70222.4 65414.8 -34200.5 -34429.1 
-34778.3 -35292.6 -36030.1 -37065.4 -38480.3 -40346.8 -42723.7 -45587.9 -48734.5 
-51629.6 -53509.6 -54036.7 -54281.2 -57259.3 -67096.5 -81037.6 -89733.9 -83523 
-54633.8 -37334.1 -57657 -61654.5 -51337.5 -43849.2 -35849 -26104.7 -13741.5 
1470.82 33052.2 125677 449986 357688 -1.47237e+06 -886350 333292 636861 
615425 564924 558547 555174 534578 513996 510614 543575 567025 
584214 576255 537870 465167 361190 269389 267141 343243 395896 
389114 387135 268079 107096 68823.6 77071.1 82297.4 82423.8 80214.4 
75765.1 69917.8 64120.9 -34501.5 -34745.9 -35113.5 -35647.2 -36406.6 -37463.3 
-38892.4 -40755.3 -43090.9 -45841.4 -48787.2 -51466 -53391.9 -54486.6 -55821.6 
-59343.7 -67664.5 -77254.9 -82272.2 -76837.7 -60102 -59686.9 -72268.6 -62844.7 
-50818.5 -43304.6 -34983.3 -24388.3 -10109.7 10227.4 48522 147602 492460 
429394 -1.70651e+06 -608720 634041 782159 669209 594830 589602 578682 
557429 523979 510640 526558 534171 542094 535058 507236 452214 
374827 305253 306417 370080 420663 496636 517930 150604 -70565.8 
44006.6 74666.1 81515 81088.3 78338.9 74441.7 69057.6 63201.5 -34808 
-35069.3 -35451 -35996.9 -36764.1 -37822.1 -39243.5 -41085.3 -43377.4 -46053 
-48890.1 -51471 -53448.2 -54880.3 -56827.4 -60447.1 -67840.2 -74598 -77076.1 
-71525.6 -60845 -71811.4 -82338.2 -65011.8 -50063.4 -43147.7 -34733.3 -23585.2 
-7867.21 14533.3 49600 107287 135273 -608736 -2.26733e+06 325473 1.42247e+06 
973093 722752 629603 616652 604158 574342 528626 502670 511496 
509029 503245 492947 476964 442010 394704 351222 358917 406056 
436273 481031 395669 30794.6 -84745.3 51980 78904.9 81339.9 78841.1 
75828.4 73558.2 68431.6 62235.1 -35123.8 -35398.4 -35791.6 -36341.7 -37103.2 
-38143 -39535.1 -41340.2 -43587.7 -46227.8 -49040 -51606.4 -53600.5 -55179.4 
-57311.1 -61215.5 -67892 -73091.6 -74069.6 -67100.7 -49605.8 -47153.5 -61205.6 
-60284 -49100.4 -43367.9 -35123.7 -23836.6 -7401.46 14828 40650.6 58606.2 
-91979.2 -530282 -891053 1.55509e+06 1.95252e+06 1.05879e+06 711166 642223 646130 
635234 593865 532221 504833 508021 487588 458665 442715 445375 
435487 414488 397845 411950 444218 444009 358158 119667 49037.2 
132900 103963 91032.5 82510.8 75543.9 72708.5 72342 67792.3 61658.9 
-35444.8 -35734.7 -36136.2 -36684.2 -37426.2 -38427.2 -39768.1 -41520.5 -43720.8 
-46361.1 -49231.7 -51859.6 -53838.1 -55276.9 -57380.5 -61351.3 -68023.6 -72650.8 
-73884.7 -67517.1 -42300.1 -19984.7 -36170 -50777.3 -48233.5 -43924.1 -36245.3 
-25277.5 -9262.15 11908.8 10636.8 15115.5 -58000.7 84135.2 50628 1.11832e+06 
1.40971e+06 787534 624920 635654 668609 659497 603233 543597 517466 
505241 465536 398529 381543 412172 431279 432731 437375 458188 
482644 466901 318013 62352.6 164681 304402 149483 99991.7 83390.8 
74967.4 71166 71307 67372.3 61289.6 -35776.6 -36078.2 -36487.1 -37028.5 
-37738.4 -38677.9 -39942.9 -41622.5 -43761.8 -46435.1 -49470.4 -52260.3 -54159.9 
-55261.3 -56739.2 -60814.6 -68552 -73196.5 -75877 -79535.3 -69404.1 -45587.1 
-43195.4 -49003.6 -48731.9 -45131.3 -38358.3 -28129.9 -13961.6 313.132 -22515.9 
-11097.1 197797 737811 286146 274821 582867 487728 526859 611195 
662618 652968 602933 554268 524403 499691 438740 341879 323225 
383760 427545 447594 467517 495240 520344 516862 432360 192333 
149078 216190 140407 99800.5 83785.2 75738.3 71427.4 70217.3 66460.1 
60761.3 -36115.1 -36432.7 -36847.1 -37378.1 -38048.5 -38904.6 -40058.7 -41629.9 
-43694.9 -46429.1 -49748.4 -52853.5 -54653.8 -55122.6 -55389.1 -59518.2 -69068.3 
-74684.2 -77948 -89202 -95637.7 -74305.8 -56284.5 -52258.1 -50412.3 -46945.9 
-41709.3 -32330.9 -20568.2 -12247.6 -27111.7 -22107 137570 292504 -644326 
-825175 -56080.2 290771 473615 591919 644450 638050 599427 559187 
527139 491143 419584 306995 289748 367120 425070 458120 488323 
522627 553707 581314 656668 587391 235014 71389.9 110042 93738.3 
82912.9 75789.9 71483.5 68931 65035 60062.9 -36464.1 -36800.4 -37222.1 
-37735.3 -38366.8 -39121.4 -40118.4 -41561.3 -43467.2 -46280.1 -50071.5 -53755.5 
-55453.2 -54990.5 -53373.2 -56574.6 -70486.8 -77316.2 -79566.4 -86711.5 -92149.6 
-77727.4 -62483.4 -55898.5 -52230.9 -49294.8 -46566.7 -37487.1 -26845.7 -19970.6 
-29070.7 -31148.6 -15946.6 -210906 -1.25076e+06 -1.34138e+06 -389715 218376 475997 
588822 631159 626078 595649 560735 527033 484132 411721 305111 
292689 365932 424208 463494 500963 540668 577061 630271 836480 
1.06409e+06 631602 115220 95227.2 87250.5 81429.7 75456 71180.7 67853.1 
63851 59247.7 -36820.5 -37183.8 -37618.4 -38114.8 -38696 -39340.9 -40131.4 
-41426.8 -43032.7 -45898.7 -50427.7 -55135.7 -56737.2 -55137 -50403 -50898.8 
-64285.5 -71297.1 -77019.1 -81501.9 -84739.4 -75850.3 -65271.2 -58592.6 -53746 
-51455 -51982.5 -42464 -31177.1 -23681.7 -27742.9 -46127.5 -112232 -409816 
-1.41598e+06 -1.54295e+06 -516181 256631 516099 598721 625811 619095 592791 
560963 526327 481460 414476 333270 323127 376588 423939 464372 