# vtk DataFile Version 4.2
vtk output
ASCII
DATASET RECTILINEAR_GRID
FIELD FieldData 6
base_index 1 3 int
0 56 0 
avtOriginalBounds 1 6 double
0 20 17.5 20 0 0 
MeshName 1 1 string
amr_mesh

CYCLE 1 1 int
10240 
TIME 1 1 double
0.00014738918426 
VisItExpressions 1 0 string

DIMENSIONS 33 9 1
X_COORDINATES 33 float
0 0.625 1.25 1.875 2.5 3.125 3.75 4.375 5 
5.625 6.25 6.875 7.5 8.125 8.75 9.375 10 10.625 
11.25 11.875 12.5 13.125 13.75 14.375 15 15.625 16.25 
16.875 17.5 18.125 18.75 19.375 20 
Y_COORDINATES 9 float
17.5 17.8125 18.125 18.4375 18.75 19.0625 19.375 19.6875 20 

Z_COORDINATES 1 float
0 
CELL_DATA 256
SCALARS P float
LOOKUP_TABLE default
850.945 858.724 862.527 871.675 884.559 898.767 914.207 927.756 939.259 
946.629 949.689 947.871 941.037 929.346 912.723 892.791 869.526 844.56 
817.93 791.37 764.961 739.933 716.406 694.998 675.853 659.318 645.5 
634.615 626.751 621.431 618.775 615.667 739.915 744.114 748.296 756.09 
766.737 778.711 791.41 802.869 812.442 818.718 821.264 819.763 814.007 
804.123 790.172 773.216 753.507 732.17 709.532 686.715 664.074 642.469 
622.192 603.628 587.032 572.672 560.728 551.348 544.601 540.071 537.549 
535.448 627.541 630.002 633.67 640.121 648.8 658.666 669.028 678.508 
686.375 691.59 693.686 692.466 687.711 679.529 668.007 653.901 637.507 
619.681 600.793 581.644 562.632 544.422 527.327 511.619 497.57 485.403 
475.317 467.438 461.813 458.061 455.928 454.453 514.306 515.761 518.707 
523.858 530.748 538.642 546.913 554.53 560.831 565.036 566.733 565.776 
561.97 555.408 546.168 534.798 521.568 507.143 491.855 476.298 460.829 
445.977 432.021 419.167 407.662 397.692 389.448 383.048 378.519 375.527 
373.836 372.788 400.067 401.259 403.659 407.584 412.782 418.765 424.993 
430.773 435.537 438.747 440.071 439.348 436.465 431.455 424.438 415.731 
405.622 394.532 382.789 370.789 358.86 347.357 336.525 326.545 317.601 
309.852 303.443 298.471 294.918 292.574 291.199 290.371 285.91 286.699 
288.416 291.177 294.821 299.024 303.391 307.455 310.801 313.065 314.009 
313.504 311.477 307.946 303.003 296.849 289.703 281.844 273.519 264.995 
256.515 248.323 240.598 233.476 227.09 221.556 216.984 213.444 210.908 
209.237 208.243 207.688 171.571 172.051 173.092 174.737 176.896 179.383 
181.963 184.367 186.347 187.69 188.253 187.954 186.75 184.652 181.715 
178.053 173.799 169.113 164.147 159.056 153.989 149.087 144.46 140.193 
136.365 133.049 130.309 128.183 126.655 125.641 125.03 124.703 57.1971 
57.358 57.7065 58.2528 58.9679 59.7912 60.6446 61.4401 62.0952 62.5401 
62.7267 62.6271 62.2275 61.5306 60.556 59.3398 57.9269 56.3695 54.7186 
53.0255 51.3401 49.7087 48.1678 46.7467 45.4718 44.3673 43.4548 42.7462 
42.2352 41.8954 41.6893 41.5817 
FIELD FieldData 1
avtGhostZones 1 256 unsigned_char
0 0 0 0 0 0 0 0 0 
0 0 0 0 0 0 0 0 0 
0 0 0 0 0 0 0 0 0 
0 0 0 0 0 0 0 0 0 
0 0 0 0 0 0 0 0 0 
0 0 0 0 0 0 0 0 0 
0 0 0 0 0 0 0 0 0 
0 0 0 0 0 0 0 0 0 
0 0 0 0 0 0 0 0 0 
0 0 0 0 0 0 0 0 0 
0 0 0 0 0 0 0 0 0 
0 0 0 0 0 0 0 0 0 
0 0 0 0 0 0 0 0 0 
0 0 0 0 0 0 0 0 0 
0 0 8 8 8 8 8 8 8 
8 8 8 8 8 8 8 8 8 
8 8 8 8 8 8 8 8 8 
8 8 8 8 8 8 8 8 8 
8 8 8 8 8 8 8 8 8 
8 8 8 8 8 8 8 8 8 
8 8 8 8 8 8 8 8 8 
8 8 8 8 8 8 8 8 8 
8 8 8 8 8 8 8 8 8 
8 8 8 8 8 8 8 8 8 
8 8 8 8 8 8 8 8 8 
8 8 8 8 8 8 8 8 8 
8 8 8 8 8 8 8 8 8 
8 8 8 8 8 8 8 8 8 
8 8 8 8 
