# vtk DataFile Version 4.2
vtk output
ASCII
DATASET RECTILINEAR_GRID
FIELD FieldData 6
base_index 1 3 int
0 56 0 
avtOriginalBounds 1 6 double
0 20 17.5 20 0 0 
MeshName 1 1 string
amr_mesh

CYCLE 1 1 int
6400 
TIME 1 1 double
9.281098493e-05 
VisItExpressions 1 0 string

DIMENSIONS 33 9 1
X_COORDINATES 33 float
0 0.625 1.25 1.875 2.5 3.125 3.75 4.375 5 
5.625 6.25 6.875 7.5 8.125 8.75 9.375 10 10.625 
11.25 11.875 12.5 13.125 13.75 14.375 15 15.625 16.25 
16.875 17.5 18.125 18.75 19.375 20 
Y_COORDINATES 9 float
17.5 17.8125 18.125 18.4375 18.75 19.0625 19.375 19.6875 20 

Z_COORDINATES 1 float
0 
CELL_DATA 256
SCALARS P float
LOOKUP_TABLE default
419.019 439.675 454.364 482.973 528.185 582.73 644.801 706.697 766.555 
816.119 854.351 879.333 890.167 886.721 868.633 838.729 796.908 748.913 
695.047 638.984 581.122 526.28 474.882 428.187 386.35 349.968 319.009 
291.832 268.595 251 241.885 238.66 361.863 376.939 390.395 414.195 
451.403 497.77 550.085 603.233 653.651 696.342 729.234 751.173 760.934 
758.544 743.84 718.789 684.023 643.171 597.42 549.33 500.116 452.789 
408.391 367.908 331.677 299.946 272.566 248.41 227.736 211.856 203.124 
200.085 305.069 315.602 327.296 346.843 377.121 415.57 458.923 503.321 
545.071 580.895 608.656 627.368 635.878 634.305 622.583 602.058 573.544 
539.592 501.545 461.275 420.162 380.308 342.857 308.602 277.916 250.921 
227.384 206.486 188.553 174.654 166.558 163.545 248.491 256.197 265.713 
281.259 305.272 336.145 371.038 406.883 440.469 469.555 492.253 507.63 
514.755 513.787 504.692 488.356 465.573 438.236 407.548 374.892 341.546 
309.072 278.501 250.462 225.304 203.105 183.598 166.175 151.171 139.46 
132.318 129.6 192.31 198.039 205.217 217.19 235.418 258.989 285.754 
313.226 339.053 361.502 379.169 391.17 396.917 396.405 389.717 377.371 
360.122 339.225 315.703 290.577 264.902 239.813 216.129 194.351 174.758 
157.403 142.044 128.336 116.521 107.279 101.336 99.1274 137.197 140.851 
145.986 154.464 167.281 183.893 202.791 222.19 240.469 256.407 269.005 
277.579 281.756 281.5 276.886 268.23 256.109 241.358 224.714 206.891 
188.667 170.825 153.951 138.407 124.4 111.96 100.896 91.0108 82.4879 
75.8029 71.4443 69.6824 82.3341 84.3618 87.457 92.541 100.161 110.026 
121.255 132.792 143.686 153.197 160.733 165.875 168.409 168.296 165.587 
160.464 153.279 144.505 134.586 123.954 113.077 102.414 92.3138 82.9983 
74.5922 67.1074 60.4333 54.4765 49.3482 45.3237 42.6788 41.5382 27.4715 
28.1182 29.1587 30.8573 33.387 36.6558 40.3771 44.2028 47.8188 50.9781 
53.4831 55.1947 56.0413 56.0085 55.113 53.4161 51.0342 48.1215 44.8262 
41.2929 37.6774 34.1305 30.7685 27.6657 24.8636 22.3653 20.1357 18.148 
16.4391 15.0982 14.214 13.8208 
FIELD FieldData 1
avtGhostZones 1 256 unsigned_char
0 0 0 0 0 0 0 0 0 
0 0 0 0 0 0 0 0 0 
0 0 0 0 0 0 0 0 0 
0 0 0 0 0 0 0 0 0 
0 0 0 0 0 0 0 0 0 
0 0 0 0 0 0 0 0 0 
0 0 0 0 0 0 0 0 0 
0 0 0 0 0 0 0 0 0 
0 0 0 0 0 0 0 0 0 
0 0 0 0 0 0 0 0 0 
0 0 0 0 0 0 0 0 0 
0 0 0 0 0 0 0 0 0 
0 0 0 0 0 0 0 0 0 
0 0 0 0 0 0 0 0 0 
0 0 8 8 8 8 8 8 8 
8 8 8 8 8 8 8 8 8 
8 8 8 8 8 8 8 8 8 
8 8 8 8 8 8 8 8 8 
8 8 8 8 8 8 8 8 8 
8 8 8 8 8 8 8 8 8 
8 8 8 8 8 8 8 8 8 
8 8 8 8 8 8 8 8 8 
8 8 8 8 8 8 8 8 8 
8 8 8 8 8 8 8 8 8 
8 8 8 8 8 8 8 8 8 
8 8 8 8 8 8 8 8 8 
8 8 8 8 8 8 8 8 8 
8 8 8 8 8 8 8 8 8 
8 8 8 8 
