# vtk DataFile Version 4.2
vtk output
ASCII
DATASET RECTILINEAR_GRID
FIELD FieldData 6
base_index 1 3 int
6 10 0 
avtOriginalBounds 1 6 double
0.46875 5.9375 0.390625 3.59375 0 0 
MeshName 1 1 string
amr_mesh

CYCLE 1 1 int
6400 
TIME 1 1 double
9.281098493e-05 
VisItExpressions 1 0 string

DIMENSIONS 71 83 1
X_COORDINATES 71 float
0.46875 0.546875 0.625 0.703125 0.78125 0.859375 0.9375 1.01562 1.09375 
1.17188 1.25 1.32812 1.40625 1.48438 1.5625 1.64062 1.71875 1.79688 
1.875 1.95312 2.03125 2.10938 2.1875 2.26562 2.34375 2.42188 2.5 
2.57812 2.65625 2.73438 2.8125 2.89062 2.96875 3.04688 3.125 3.20312 
3.28125 3.35938 3.4375 3.51562 3.59375 3.67188 3.75 3.82812 3.90625 
3.98438 4.0625 4.14062 4.21875 4.29688 4.375 4.45312 4.53125 4.60938 
4.6875 4.76562 4.84375 4.92188 5 5.07812 5.15625 5.23438 5.3125 
5.39062 5.46875 5.54688 5.625 5.70312 5.78125 5.85938 5.9375 
Y_COORDINATES 83 float
0.390625 0.429688 0.46875 0.507812 0.546875 0.585938 0.625 0.664062 0.703125 
0.742188 0.78125 0.820312 0.859375 0.898438 0.9375 0.976562 1.01562 1.05469 
1.09375 1.13281 1.17188 1.21094 1.25 1.28906 1.32812 1.36719 1.40625 
1.44531 1.48438 1.52344 1.5625 1.60156 1.64062 1.67969 1.71875 1.75781 
1.79688 1.83594 1.875 1.91406 1.95312 1.99219 2.03125 2.07031 2.10938 
2.14844 2.1875 2.22656 2.26562 2.30469 2.34375 2.38281 2.42188 2.46094 
2.5 2.53906 2.57812 2.61719 2.65625 2.69531 2.73438 2.77344 2.8125 
2.85156 2.89062 2.92969 2.96875 3.00781 3.04688 3.08594 3.125 3.16406 
3.20312 3.24219 3.28125 3.32031 3.35938 3.39844 3.4375 3.47656 3.51562 
3.55469 3.59375 
Z_COORDINATES 1 float
0 
CELL_DATA 5740
SCALARS P float
LOOKUP_TABLE default
-7458.85 -7476.4 -7503.17 -7546.6 -7612.72 -7712.96 -7855.46 -8062.78 -8345.64 
-8731.64 -9231.93 -9858.18 -10613.3 -11483.6 -12472.6 -13571.1 -14786.3 -16070 
-17392.5 -18617 -19709.4 -20687.8 -21590.9 -22496.4 -23433.6 -24456.3 -25572.7 
-26791.1 -28088.1 -29325 -30442.5 -31279.9 -31718.5 -31490.4 -30490.8 -28706.9 
-26093.3 -22429.6 -17613.8 -11422.6 -4028.11 3332.82 9919.6 14609.2 17317.8 
18942.4 20014 20741.3 20332.7 16986.4 12444.6 11198.6 11039.1 8687.42 
4205.53 688.314 -1481.49 -958.624 1499.14 4933.71 8832.99 12140.3 14767.5 
16617.2 17815 18553.4 18910.6 19006.3 18880 18622.1 -8121.31 -8141.37 
-8172.32 -8221.6 -8295.76 -8406.57 -8566.05 -8794.92 -9111.92 -9543.08 -10108.2 
-10819.5 -11675.3 -12660 -13770.5 -15009.3 -16387.8 -17872.8 -19392.1 -20795.4 
-22009.5 -23054.2 -24009.8 -24954.1 -25937.7 -27002.4 -28168.7 -29450.7 -30809.5 
-32141.6 -33342.4 -34288 -34778.4 -34598.2 -33575.5 -31720.9 -28938.4 -25065.9 
-19813.3 -12763.5 -4078.64 4863.39 12546.6 17711.5 20233.6 21627.4 22770.9 
23983.7 24257.6 19002.6 12127.4 11718.1 12880.4 10094 4035.74 -1949.81 
-4646.28 -3400.3 172.992 4829.09 9702.19 13702.9 16670.1 18674.5 19934.7 
20662.8 20995.2 21038.9 20864.4 20542.7 -8777.24 -8799.76 -8835.1 -8889.99 
-8972.11 -9093.36 -9268.44 -9518.66 -9867.87 -10345.1 -10977.5 -11779.5 -12744.4 
-13848.2 -15082.1 -16460.5 -18012.4 -19715.9 -21468.5 -23071.5 -24404.5 -25498.5 
-26483.6 -27453.8 -28466.8 -29556.1 -30752.2 -32079.6 -33497.2 -34915.8 -36209.5 
-37264.4 -37835.8 -37721.6 -36699.9 -34792.9 -31895.1 -27866.5 -22283.7 -14360.4 
-4049.06 6794.35 15666.2 21241 23252.6 24268.4 25487.5 27488.7 29291.4 
21177.7 9985.22 11781.2 15514.6 11859.1 2876.03 -6199.62 -9379.04 -7000.17 
-1967.57 4432.55 10663 15461.2 18763.4 20883.1 22161.6 22856.8 23141.4 
23122.8 22886.2 22495 -9424.71 -9450.55 -9490.46 -9551.36 -9641.41 -9773.21 
-9963.16 -10234.2 -10614.2 -11137.5 -11839.9 -12740.4 -13825.6 -15055.2 -16410.4 
-17923.6 -19654 -21601.3 -23633.8 -25469 -26914.8 -28027.1 -29013.1 -29992.6 
-31017.7 -32109 -33309.3 -34659.6 -36124.9 -37621.4 -39010.3 -40178.8 -40854.1 
-40829.2 -39833.1 -37890 -34910.2 -30823.3 -25093.5 -16356.6 -3963.93 9349.84 
19328.1 25178.8 26238.8 26695.8 28108.2 31015.3 35789.5 23801.1 5485.44 
10657.9 19200.3 13848.7 703.863 -10897.5 -13356 -10151.6 -4527.11 3702.57 
11781.6 17482.8 21077.4 23253.2 24500 25134 25349.8 25257 24946.7 
24479.1 -10063.2 -10093.1 -10138.2 -10205.6 -10303.9 -10446.5 -10650.9 -10941.8 
-11350.8 -11918.7 -12693.5 -13703 -14924.8 -16289.4 -17759.2 -19394.2 -21300.7 
-23522.4 -25901.6 -28019.2 -29563.7 -30643.8 -31593 -32565.2 -33585.5 -34650.1 
-35821.5 -37166.9 -38663.5 -40229.8 -41714 -43002 -43802.7 -43895.6 -42949.7 
-40974.9 -37930.7 -33894.4 -28363.8 -19041.3 -3943.32 12795.8 24461.3 29893.6 
29130.3 28674.6 31299.2 34233.3 42973.1 26756 38.3963 8740.21 23348.2 
15454.7 -1635.99 -12546.6 -13489 -11239.2 -6833.97 2782.69 13166.4 19864.9 
23646.5 25790.6 26949.4 27490.8 27618 27439.3 27044.9 26494 -10692.6 
-10727.5 -10778.6 -10853.3 -10960.5 -11114.2 -11332.8 -11642.4 -12077.4 -12686.5 
-13534.6 -14666.4 -16049.2 -17562.9 -19134.4 -20865.8 -22932.8 -25464.7 -28291.4 
-30770.9 -32384.9 -33348.6 -34213.1 -35166.8 -36167.7 -37169.6 -38267.8 -39574.7 
-41084.3 -42713.1 -44292 -45704.1 -46650.5 -46894.5 -46024.8 -44000.3 -40862 
-36995.3 -32226.5 -22948.8 -4218.88 16780.5 31147.4 37423.2 33268.8 29667.3 
35559.4 36847 51362.4 30822.6 -13449.6 2806.55 26734 15264.6 -2996.28 
-11869.6 -12674.8 -12354.5 -9572.36 1838.59 15013.8 22701.2 26497.7 28492.1 
29504 29921.9 29942.5 29666.6 29179.6 28538.8 -11313 -11354 -11412.2 
-11495.2 -11612.1 -11777.4 -12010.2 -12337.3 -12794.1 -13437.5 -14356.1 -15627.1 
-17208.9 -18894.9 -20546 -22328 -24520.5 -27398.8 -30830 -33806.6 -35429.9 
-36133.2 -36853 -37794.4 -38768.7 -39660.7 -40626.1 -41854.9 -43360.2 -45046.1 
-46720.1 -48249.4 -49358.7 -49798.6 -49045.4 -46923.9 -43607.3 -39975.9 -36738.6 
-29165.9 -6084.53 21710.9 39915.2 49801.7 38107.1 25444.8 39678 40883.7 
57082.8 49121.5 -6492.01 12845 30103 15481.1 -3834.63 -11896.7 -11884.7 
-14256.8 -14105.6 1047.13 17674.9 26083.5 29629.5 31338.3 32149 32418.3 
32317.8 31935.3 31348.2 30611.3 -11924.6 -11973.1 -12039.8 -12132.3 -12260 
-12437.8 -12685.2 -13028.4 -13501.7 -14167.3 -15147.2 -16578.4 -18419.4 -20316.8 
-22009.8 -23775.5 -26016.6 -29269.6 -33553.6 -37261 -38777.9 -38974.4 -39477.2 
-40447.2 -41403.1 -42119.7 -42870.3 -43974.5 -45461.8 -47198.6 -48954.9 -50585.5 
-51864.9 -52561.6 -52004.1 -49733.2 -46009.4 -42376.5 -41486.2 -42607.4 -17118.9 
27560.6 53541.5 66938.3 59850.5 46934.2 53122.6 48353.9 64659.5 86854.5 
65598.6 56196.5 33614.1 16169.1 -4924.18 -8515.96 -9787.39 -17439.8 -20407.4 
1097.28 21703.4 30045.7 32988.3 34288.5 34861.4 34969.1 34739 34242.4 
33548.6 32709.5 -12527.9 -12585.1 -12661.9 -12765.5 -12905.4 -13096.9 -13360 
-13719.3 -14203.2 -14872.5 -15890.6 -17505 -19704.1 -21884.2 -23554.8 -25205.3 
-27359.9 -30967.6 -36495.7 -41345.2 -42534.8 -41809.8 -42031.1 -43130.2 -44104 
-44549.7 -44970.1 -45893.9 -47356.2 -49139.4 -50955.7 -52644 -54083.9 -55135.5 
-54886.7 -52429.3 -47865.5 -43553.9 -47215.7 -67998.4 -40901.6 37430.9 66790.4 
87174 101167 97089.1 88502.5 60017.9 79149.1 105548 93858.6 61661.2 
17686.8 5147.14 -1804.05 -67.9953 -7042.28 -24031.2 -28514.8 3582.75 27673.1 
34401.8 36439.7 37275.5 37609.8 37561.5 37200.9 36585.3 35778.3 34831.2 
-13122.8 -13190.8 -13279.7 -13396.4 -13550.1 -13757.2 -14038.3 -14415.9 -14905.6 
-15549.7 -16556.5 -18374.1 -21098.3 -23694.3 -25228.6 -26628.2 -28467.5 -32277.5 
-39693.1 -46463.9 -46878.4 -44495.4 -44412.2 -45874.3 -46939.5 -46961.4 -46884 
-47562.1 -49003.6 -50842.2 -52690.4 -54358.3 -55933 -57469.5 -57786.1 -55031.9 
-48876.2 -42962.6 -51998.9 -90044.5 -44276.8 32730.2 73786.5 88429 127357 
116780 93713 63556.8 91707.3 104563 74964.4 24886.2 -24446.5 -23473.5 
1415.5 12096.6 -5865.38 -40267.7 -42184.4 12699.9 35363.3 38531.1 39763 
40206.6 40365.5 40184.1 39698.9 38960.6 38033.8 36972.8 -13710 -13790.9 
-13894.2 -14026.4 -14196.2 -14420.9 -14723.3 -15124.8 -15620.8 -16199.7 -17097.9 
-19119.7 -22652.2 -25920.4 -27149 -28121.6 -29175.7 -32799.3 -43149.9 -53317.6 
-52085.2 -46730.5 -46469.3 -48736.1 -50035.2 -49355.4 -48527.4 -48902.3 -50343.5 
-52281.2 -54127.7 -55652.9 -57260.1 -59470.8 -60788.9 -57743.1 -49136.4 -40195.9 
-54308.4 -103684 -64564.7 8860.21 40239.2 83761.1 135409 111533 79775.1 
53071.4 107617 118025 61396.3 8392.06 -47696.6 -50966.8 6406.46 24580 
-18928.8 -88702.2 -80842.5 13071.1 39495.1 42216.8 42558.4 43010.4 43103.9 
42832.6 42231.3 41366.6 40312.7 39132.1 -14289.6 -14386.3 -14507 -14657.4 
-14845.7 -15090.2 -15418 -15855.2 -16371.4 -16838 -17442.3 -19608.1 -24419.5 
-28797.6 -29210.6 -30048.3 -29476.6 -31741.4 -46807.5 -63431.7 -58847 -47918 
-47944 -51882 -53628.6 -51721.1 -49764.8 -49817.3 -51331.6 -53433.2 -55253.8 
-56425.4 -57830.8 -61012.4 -64151.9 -61160.3 -48994 -35291.8 -52883.4 -106033 
-82619.4 -30068.2 7481.56 105187 156338 122676 63122.7 27494.5 131431 
141750 55311.4 2915.37 -68519.3 -86062.8 8529.64 37679.3 -26691 -128255 
-131784 -4554.41 38981.1 43367.6 44812.7 45645.6 45838.4 45515.5 44800.3 
43801.4 42612.2 41305.3 -14862.4 -14977.5 -15119.1 -15291.3 -15500.7 -15766.5 
-16123.6 -16615.7 -17195.3 -17512.2 -17491.8 -19609.9 -26581.4 -32786.8 -31292.4 
-32311.5 -29292.4 -27880.3 -50698.4 -80837.5 -69167.4 -47005 -48492 -55675.5 
-58171.1 -54008.8 -50364.9 -50186.4 -51912.5 -54304 -56061 -56488.6 -57205 
-61743.2 -68377.7 -66529.3 -49494.2 -25735.9 -35953.9 -86003 -84108.8 -49039.7 
-8348.18 120892 197809 171954 39214.1 -35835 177745 220362 67330.2 
-42717.5 -182220 -169513 25453 68687.2 -21606.5 -135625 -149763 -24181.4 
32333.5 42674 46489.7 48175.4 48603.3 48248.9 47410.3 46264.4 44929.3 
43488.9 -15427.8 -15565.3 -15732.1 -15930.6 -16164.3 -16451.7 -16838.3 -17410.9 
-18152.6 -18340.8 -17117.7 -18570 -29159.2 -39732.8 -31371.7 -27378.6 -24149.4 
-28297.4 -62702.7 -102520 -75194.6 -38828 -47585.1 -60349.6 -64026.8 -55892 
-49970 -49887.8 -52041.9 -54927.9 -56617.5 -55701.2 -54788.9 -61075.3 -74082.4 
-75240.8 -53121.8 -21162.7 -14795.9 -38218 -69829.4 -63428.9 -10581.1 121941 
259019 255885 17220.3 -138415 253090 353308 120318 -105737 -395021 
-265163 97723.6 132088 -9588.59 -129917 -138845 -35830.1 23754.8 40963 
47935.6 50750.1 51461 51055.3 50065.4 48751.9 47259.2 45677.8 -15986.6 
-16150.2 -16347.7 -16578.3 -16840.4 -17147.7 -17554.4 -18228.3 -19322 -19582.9 
-16155.5 -14950.9 -21174.1 -28828.8 -19330.4 -16305.9 -17777.9 -36118.5 -69867.3 
-84769.6 -43930.4 -18645.8 -46351.1 -67687.1 -72225.9 -59694.8 -48432 -48934.5 
-51658.6 -55372 -57150.5 -53937.8 -49648.6 -57562.5 -82212.3 -89815.8 -61165.3 
-29598.1 -19629.9 -23774 -60346 -80359.1 -30814.1 119957 365117 393174 
-27864.6 -324107 371364 532319 195977 -78592.3 -675210 -382607 224115 
218155 349.157 -119808 -123956 -41816 16079.5 39620.8 49662.3 53594.4 
54495 53960.8 52769.6 51260.2 49595.9 47867.6 -16537.8 -16732.8 -16967.5 
-17238.4 -17535.2 -17859.3 -18256.7 -19019.6 -20816.2 -21801 -15767.2 -11876.8 
-7037.4 -6862.78 -3599.57 -11583.9 -18908 -38887.3 -59270.8 -50605.5 -13435 
-2237.8 -41271.2 -73728.5 -84448.2 -67728.9 -46819.5 -47449.3 -50590.5 -55734.8 
-58156 -51379.1 -40044.4 -48776.8 -81596 -86762.9 -53215.8 -34355.7 -39251.3 
-41251.9 -61556.7 -86398 -70263.7 111932 547970 635220 -60346.1 -684112 
125563 807031 396727 -225459 -882555 -323226 513544 339509 -11627.6 
-117800 -118607 -47070.2 10907 39590.4 52253.1 56923.8 57768.9 56970.9 
55512.4 53776.6 51930 50049 -17081.3 -17312.7 -17593 -17915.3 -18258 
-18597.7 -18923.8 -19635.5 -22647.8 -25738.2 -22702.8 -22741.8 -10479.9 -3856.13 
-4361.72 -14956.6 -23345.6 -37224.6 -48303.8 -39750.6 -16416.6 -4761.03 -36180.5 
-74789.4 -98675.5 -72717.4 -44386.6 -45874.2 -48427.3 -56151.7 -60463.4 -48939.1 
-23764.2 -31152.5 -59123.5 -55344.3 -46188.4 -45108.2 -60791.7 -70721.9 -64604 
-35561.5 -122550 67859.3 836684 1.12276e+06 395839 -313383 -140088 704131 
540066 -157835 -215286 482325 1.02257e+06 382316 -87395 -128342 -124182 
-53066.9 8875.59 42060.7 56338.6 60979.4 61345.6 60085.2 58279.2 56288.5 
54251.9 52216.8 -17615.6 -17889.7 -18225.3 -18614.2 -19023.5 -19390.9 -19557.4 
-19885.4 -24394.8 -30932.9 -32135.5 -36387.7 -20173.5 -11369.2 -11945.3 -18980.3 
-26467.9 -36220 -42801.8 -37600.8 -24263.9 -15699.9 -33279.6 -62496.5 -86853 
-66030.8 -37784.1 -43538.3 -46984 -56643.7 -64885 -49895 -4209.4 -8199.64 
-32739 -37628.9 -61677.6 -68429.9 -89602.2 -122307 -79966.2 63864.2 -257418 
-164678 939228 1.38215e+06 900910 476767 108727 431219 480313 223818 
567629 973580 716459 -63899.2 -196314 -146567 -146510 -62119.4 10968.1 
48265.7 62485.3 65905.6 65225.6 63274.9 61043.1 58777.2 56548.9 54364.7 
-18139.7 -18462.4 -18864.3 -19340.3 -19856.8 -20277.8 -20176.3 -18931 -22154.1 
-26570.2 -31806.3 -35040.2 -24796.4 -17823.1 -17998.6 -22838.9 -29008.5 -35995.6 
-40211.4 -37128.1 -29173.7 -25890.3 -37342.1 -54387.5 -61713.1 -58123.5 -35307.2 
-44235.1 -46296.5 -56335.4 -72890.1 -75211.8 -30820.5 -11300.6 -23596.1 -37578.5 
-69151.1 -86834.1 -125147 -195665 -97268.9 204591 -558492 -915067 394094 
994621 785354 634703 359049 436405 459638 382772 606679 664373 
189376 -51207.8 54500.2 -139697 -194425 -72952.4 19643.1 59518.1 71022.1 
71662.6 69304 66462.1 63757.4 61216.2 58807.4 56482.2 -18650.9 -19028.6 
-19508.7 -20096.3 -20773.5 -21402.7 -21540 -16978.7 -18954.9 -20653 -30491.6 
-30878.1 -26362.4 -22536.1 -22809.8 -26407.4 -31266.7 -36402.4 -39378.2 -37859.2 
-33483.3 -33008.8 -41162.3 -51243.4 -52275.2 -63489.3 -59473 -64330 -64040.2 
-68004.3 -84266 -105248 -79785.9 -35876.5 -22646.9 -34735.5 -67821.1 -97603 
-133636 -189630 -72462.5 564958 -601898 -1.63513e+06 -288953 518661 572736 
563621 429467 448980 461157 445134 555209 541436 384170 519429 
425920 -152120 -287433 -82473.5 40379.1 77266.8 81950.5 78015.2 73377.7 
69522.6 66360.9 63580.2 61016.8 58566.6 -19146.9 -19584.6 -20154.1 -20877.6 
-21761.9 -22952.7 -24286.1 -19890.2 -24128.1 -24398.7 -27219.2 -29190.1 -27900.2 
-26267.8 -26842.6 -29586.7 -33373.4 -37244 -39572 -39143.8 -37247.8 -38257.7 
-44196.3 -51423.6 -55091.3 -66931.6 -85673.1 -96221.7 -90295 -87765.7 -91480 
-103866 -80934.8 -37199.3 -17137.3 -28496.5 -68241.8 -129993 -120797 -21102.5 
-59307.5 1.4818e+06 638830 -1.06507e+06 -134409 360165 513421 523604 459836 
462000 469515 474730 534059 537495 514493 651108 547098 -133909 
-385323 -68945.4 82690.2 102402 94590.9 84399.7 77144.4 72306.2 68785 
65839.4 63165.8 60612.4 -19624.1 -20125.9 -20794.6 -21674.6 -22799 -24831.8 
-31126.1 -32935.4 -36555 -26910.8 -25596.4 -28662.1 -29517.4 -29471.8 -30309 
-32449.3 -35371.6 -38346.9 -40317.8 -40657.7 -40352.4 -41980 -46637.6 -52223 
-56869.3 -66773.2 -84949.1 -96173.4 -92592.8 -91057.9 -88095 -81478.9 -54664 
-22535.8 -5391.35 -21381.3 -76654 -173426 -91847.2 23642 -773416 1.79617e+06 
1.62077e+06 -903557 55368.5 358665 477814 500994 473161 471465 478085 
489753 526484 539543 549252 639219 627857 -1654.45 -316373 37727.6 
157659 133770 107302 89890.3 80196.6 74646.6 70967 67973.1 65247.8 
62620.4 -20078.7 -20646.6 -21422.7 -22471 -23786 -25999.8 -31941.9 -33897.9 
-35257.7 -23267.2 -23685.5 -28728.1 -31400.1 -32443 -33419.5 -35048.2 -37247.4 
-39568.3 -41314.5 -42167.2 -42806.7 -44729.7 -48534.3 -53052.9 -57639.3 -65377.2 
-76557.3 -84621.3 -84567.3 -82969.9 -76437.9 -61754.5 -34540 -7986.24 7808.68 
-3068.58 -75608.5 -180703 -153033 52058.5 -2.96984e+06 115918 2.75511e+06 -324335 
97018.3 371907 464914 488945 478489 477985 484561 497873 524299 
542145 563126 621648 622046 249371 232585 435496 259199 164655 
117284 93284.1 82103.3 76406.3 72871.2 69978.6 67268 64593.4 -20506.5 
-21139.5 -22027.5 -23260.5 -24780.2 -26532.7 -17018.4 -3389.91 -12502.4 -13968.1 
-21285 -29428 -33724.3 -35443.4 -36329.7 -37424 -38983.5 -40780.9 -42361.3 
-43533.4 -44717.3 -46754.7 -49952.2 -53673.1 -57701.4 -63523.1 -71051.1 -76514.3 
-77226.3 -75183.2 -66309.2 -45823.3 -18590.1 6068.96 24284.9 34012.4 -74070.7 
-256452 -35601.3 1.57656e+06 -2.32226e+06 324255 5.06671e+06 1.42419e+06 448071 430566 
467504 483135 480550 481558 488552 502035 523648 543522 567941 
609659 614715 645931 1.02611e+06 850031 284722 183171 121093 93150.9 
82460.9 77573.5 74538.1 71881.2 69240.6 66541.8 -20902.8 -21596.2 -22595.2 
-24059 -26154 -30855.1 -20867.9 16103 14315.8 -3307.2 -19573.3 -31188.7 
-36736.2 -38650.1 -39141.7 -39600.9 -40538 -41886.1 -43318.9 -44677.1 -46162.1 
-48204.6 -50933.1 -53984.7 -57289.9 -61597 -66835 -70671.4 -70797.8 -68297.6 
-58005.4 -33030.3 -5799.48 17241.8 37080.1 88077.6 -59541 -415096 -209734 
5.27672e+06 2.27386e+06 -955073 2.80344e+06 1.48281e+06 592855 472674 473269 480323 
480483 482652 490059 503420 522787 543293 568139 604224 647819 
885094 1.19383e+06 696593 187310 200760 116641 88276 81042.7 78239.5 
76066.2 73737.1 71194.6 68475.3 -21264 -22007 -23102.8 -24797.8 -27707.5 
-36300.4 -40714.5 14070.1 32224.7 5670.87 -19796.1 -34595.6 -40724.9 -42216.8 
-41917.4 -41569.9 -41861.9 -42801.3 -44096.4 -45553.6 -47194.9 -49182.4 -51524.6 
-53990.6 -56556.7 -59676.9 -63401.4 -66099.2 -65161 -62496.7 -52764.4 -24002.4 
2535.67 11455.4 16315.9 98296.7 -69243.2 -689864 -2.22889e+06 3.077e+06 1.06091e+06 
-5.36254e+06 -1.57103e+06 627518 540851 481872 475413 477854 478643 481448 
489157 502496 520935 541496 565295 595432 637413 774186 703378 
356563 315500 272703 98619.9 77708.2 78173.8 78632.6 77578.6 75616.5 
73163.6 70408.7 -21586.3 -22362.4 -23519.4 -25334.6 -28476.3 -36108.3 -39952 
14691.3 42283.1 10702.3 -23340.7 -40347.1 -45958.3 -46241.8 -44663.4 -43289.9 
-42892.2 -43451.3 -44624.2 -46135.3 -47852.4 -49755.3 -51764.4 -53705.8 -55557.6 
-57701.2 -60439.7 -62473.5 -60256 -57721.3 -48919.6 -20620.8 9223.83 3580.29 
-12306.4 45755.3 -60029.6 -734036 -6.37441e+06 -5.96441e+06 -211989 -1.39638e+06 -1.43976e+06 
318405 478684 475748 473534 474457 475073 477961 485831 499425 
517788 538293 560316 583293 602486 595648 182678 -501.616 316841 
222941 41886.6 61810.9 75239.7 79275.9 79249.7 77590.5 75178.8 72354.3 
-21867.8 -22657.4 -23830.8 -25633.1 -28545.2 -33046.3 -33251.3 7028.54 38319.4 
9802.74 -31831.2 -49309.2 -52652.6 -50754.6 -47323.2 -44679.6 -43551.3 -43769.5 
-44854.1 -46409.3 -48166.2 -49975.9 -51690.7 -53150.9 -54313.7 -55583.1 -57642.8 
-59420.6 -56421.6 -55388 -47130.5 -28243.2 17871.1 9585.32 17813 66485.1 
178203 511328 -4.4046e+06 -5.05801e+06 6.15182e+06 6.08342e+06 345771 387613 456355 
467339 469275 469850 469770 472047 479913 494162 513237 534040 
554418 571176 573090 510800 93511.9 -147635 -170380 -236224 -66815.8 
48067.4 74822 80806.3 81227.8 79704 77254.3 74321.9 -22109.7 -22892.4 
-24041.1 -25744.5 -28293.7 -31852.8 -34939 -19796 12421.7 -773.73 -46511.7 
-62215.3 -60865.3 -55684.2 -49757.7 -45607.8 -43742.6 -43689.7 -44747.6 -46367.7 
-48159.4 -49881.5 -51332.9 -52343.6 -52822.2 -53245.5 -54919.5 -56888.2 -53765.4 
-56367.5 -43021.5 -25821.4 24091.6 9179.13 36179.7 119614 501263 3.12557e+06 
6.51406e+06 1.59243e+06 3.09654e+06 4.52508e+06 776285 443834 447300 459497 463935 
464164 462628 463476 471076 486491 507215 529043 548643 562027 
559780 515180 381833 450250 -133821 -579532 -120489 56970 80003.3 
83603.4 83575.4 81976.3 79382.8 76302.9 -22313.2 -23073.5 -24166.4 -25733.9 
-27930.6 -30948.2 -34912.1 -33039.4 -10554.2 -24837.7 -70413.6 -78115.5 -70298.4 
-60889.4 -51728.3 -45891.8 -43355.8 -43154.3 -44282.5 -46016.8 -47860.5 -49510.5 
-50726.4 -51315.4 -51102.7 -50636.5 -52458.8 -56082.3 -51278.9 -50904.3 -28000 
-6438.62 35085.9 27662 37852.1 58803.1 301945 3.4596e+06 1.1218e+07 351603 
-7.07819e+06 -457446 368800 410676 435633 451984 458217 457661 453495 
451627 458608 475941 499586 523560 543582 556236 556724 540856 
568141 864877 385059 -134366 96436.9 105517 90408.5 87183.7 86264.9 
84402.3 81535.9 78297.6 -22484.1 -23208.3 -24227.5 -25638 -27499.9 -29935.1 
-31812.8 -28950.5 -20596.7 -43618.1 -78072.5 -83239.5 -78359.9 -66168.9 -52843.9 
-45289 -42268.2 -42112 -43448.3 -45369.2 -47296.2 -48895.9 -49907.3 -50113.9 
-49219.9 -47768 -50183.7 -57037.5 -47863.2 -37870.2 -16695.9 6731.3 45454.8 
47844.7 28235.6 -89569.3 -640999 -1.94188e+06 2.80592e+06 -1.44072e+06 -5.95806e+06 -1.3752e+06 
159146 377547 424363 445627 452942 450596 442048 435432 441249 
461773 490162 517775 539414 552913 557284 554248 568894 543381 
357032 511324 510486 159665 97812.8 90166.6 89100.2 87010.3 83704.1 
80299.3 -22625.3 -23307.6 -24243.6 -25495.2 -27049.3 -28917.5 -30003.8 -28584.4 
-27044 -38786.8 -48456 -64362.3 -81722.5 -71518.9 -52585.8 -43518.6 -40362.9 
-40532.4 -42257.4 -44454.2 -46503.2 -48077.8 -48922.4 -48816.2 -47344 -44925.2 
-47332.9 -55461.2 -42815.2 -25392.8 -11093.5 11450.8 47297.1 56059.5 37866.5 
-145422 -1.3703e+06 -7.88353e+06 -3.73962e+06 5.20636e+06 2.84015e+06 147387 284625 378768 
419295 441275 448818 443356 427695 412854 416432 442566 478667 
511845 536089 551164 559035 562529 554435 335441 253885 650125 
550717 136862 91364.1 91525 92146 89832.2 85813.7 82014.4 -22745.7 
-23380.1 -24234.2 -25339.7 -26653.5 -28102.6 -28881.1 -28567.5 -27714.8 -29860.6 
-24223.1 -34784.8 -63926.8 -67452.7 -49421.1 -40281.1 -37537.3 -38414 -40746 
-43314 -45521.7 -47095.8 -47819.7 -47511.3 -45743.1 -42994.1 -46501.6 -49871.6 
-39693.5 -21019.8 -7197.43 14004.3 44396.8 65559.1 85543.5 56889.1 -553748 
-5.43085e+06 -1.92968e+06 7.57238e+06 5.08771e+06 952708 416510 391943 417607 438857 
446244 436103 409208 380075 379307 415426 464383 505917 533549 
550350 561154 572953 591478 575107 691126 498528 69419.6 15129.9 
73609.6 92607.9 95946.8 92960.5 87728.8 82734.6 -22847.6 -23435.7 -24215.2 
-25198 -26311.7 -27501.1 -28175.7 -28407.3 -28108.1 -28104.7 -21797.6 -19913.3 
-40003.6 -53261.2 -42348.5 -35464.8 -33754.2 -35803.3 -38987 -42011.4 -44402.5 
-45994.4 -46645.6 -46265 -44616.8 -43327.2 -51331.2 -50320.3 -35350.8 -20950.9 
-16227.4 6307.14 37805.1 72685.8 149012 406319 1.39245e+06 2.13315e+06 611645 
1.01861e+06 1.81985e+06 687220 416954 394418 416421 438248 445643 428965 
385262 334194 327892 379080 447085 499932 531967 550027 562333 
581111 634676 841862 1.26247e+06 619121 -227946 -75799.4 65826.1 97884.4 
101269 96568.9 89582.6 82450.3 -22939.5 -23481.6 -24193.9 -25054.1 -26068.5 
-26978.1 -27768.7 -28200.6 -28336.1 -28182.1 -25104.5 -25289 -40191.8 -46458.7 
-34256 -29761.4 -29050.9 -32804.8 -37092.9 -40625.2 -43198 -44812.1 -45426.2 
-45069.3 -43796.8 -44574 -56397.9 -52182.5 -29903.2 -16620.8 -21175.7 -398.209 
29986.8 69595.3 174704 581568 2.3929e+06 5.02406e+06 31253.1 -3.58184e+06 -563223 
226151 351241 385418 415003 439681 447460 422769 357641 279786 
269523 340199 428571 494751 531712 549976 561273 579785 639152 
865758 1.3343e+06 888842 12821.6 -18138.5 85787.7 109695 108582 100721 
91766.3 82292.6 -23021.7 -23524.9 -24178.6 -24961 -25868.2 -26726.4 -27492.9 
-28117.7 -28649.9 -28802.6 -28786.3 -32895.3 -47724.9 -50474.4 -35892.5 -25561.8 
-23198.2 -29652.2 -35226.7 -39252.9 -41963.6 -43583.3 -44174.4 -43881.3 -43011.9 
-44737.3 -55534.7 -51003.8 -25922.5 -12276.9 -13102.9 -1308.77 21360.9 51442.5 
126437 436091 2.008e+06 3.99461e+06 -478910 -3.63002e+06 -912429 79674.6 307969 
376800 414144 443108 451524 418353 331925 228941 211411 302238 
413826 492067 533231 550387 557932 567983 599867 714523 931677 
669559 121644 77568.2 125715 128233 117643 105112 94225.9 83725.2 
-23102.3 -23569.2 -24175.1 -24900.5 -25739.7 -26567.1 -27372.6 -28179.9 -28979.4 
-29888.1 -31522.9 -36938 -49804.2 -55035.2 -43541.7 -19634.6 -15803.5 -26747.5 
-33626.2 -37997.6 -40747.8 -42332.1 -42889.5 -42635 -41953.5 -43219.3 -49857.8 
-46013.8 -23788.8 -10748.5 -11052.3 -4370.64 10856.6 20323.3 15633.8 26869 
726436 2.29156e+06 98189.3 -1.98693e+06 -451835 134555 303734 376330 415194 
448851 458344 417550 315978 193357 163995 271462 406391 494088 
537090 551838 553293 550672 542179 531369 405020 39433.1 -57727.2 
169586 177972 150825 128064 109969 96993.1 86071.1 -23179.4 -23618.3 
-24186 -24873.3 -25662.1 -26496.8 -27367.8 -28295.5 -29367.6 -30851.9 -33350.8 
-38708.2 -48016.2 -53371.5 -38645.7 -6332.83 -8465.14 -24872.4 -32535.7 -36953.3 
-39583.2 -41073.1 -41569.4 -41290.3 -40552 -40733.5 -43302.8 -39064.3 -21399.8 
-9946.95 -11657.5 -9261.67 1540.37 -8482.44 -117446 -587216 -1.92665e+06 -1.09041e+06 
1.63225e+06 1.29177e+06 384143 265979 328324 382669 417285 455818 466060 
420386 314452 186174 149577 262522 409567 502223 543585 554312 
549388 532486 487020 371692 -58306 -351800 42579.2 369811 235894 
171914 137537 115540 100274 90509.2 -23259.2 -23672.5 -24212.8 -24873.1 
-25637.4 -26485.9 -27422.8 -28449.9 -29750.6 -31560.1 -34495.9 -39561.5 -46933.1 
-51358.7 -33372.3 -949.044 -5148.17 -25821.3 -32244.2 -36174.9 -38473.6 -39807.5 
-40209.7 -39847.9 -38916.3 -38036.8 -37806.3 -32416.7 -18765.6 -8870.54 -10252.7 
-10565.1 -560.976 -13614.8 -166035 -1.09328e+06 -5.07739e+06 -4.89788e+06 4.0497e+06 5.38667e+06 
1.1243e+06 383875 363423 389501 417098 463340 473225 426106 324677 
205862 173527 281588 423815 515851 552798 558229 546546 516591 
444923 291377 -192129 -246976 386896 536141 274226 185119 143913 
119591 102926 91986.4 -23337.9 -23733.3 -24254.2 -24898.3 -25654.7 -26516.5 
-27500.4 -28620.6 -30050.9 -32031.7 -35104.9 -39952.2 -46719.6 -51540 -45824 
-35529.2 -28842.6 -32244 -33166.6 -35546.3 -37390.9 -38528 -38811.5 -38326 
-37149.2 -35567.1 -33482.4 -27892.4 -16845.1 -8723.77 -7363.28 -8496.65 5677.94 
14605.8 -47512.6 -662592 -3.79203e+06 -3.9827e+06 2.52509e+06 4.29733e+06 952345 423895 
384069 386125 415818 468411 474648 430071 340207 240816 219916 
316175 444929 532289 563692 563225 545738 508022 433117 295366 
7305.43 65662.5 410813 427167 262399 186072 145360 121006 102986 
90398.7 -23419.5 -23800.4 -24309.7 -24945.7 -25704.2 -26584.2 -27603.1 -28768.1 
-30257.2 -32264.4 -35360.9 -40014.8 -46467.7 -53389.4 -66001.9 -85507.1 -62262.6 
-37008.7 -33805.5 -34857.9 -36272.3 -37225 -37379.4 -36747.9 -35326.7 -33284 
-30407.8 -24969.5 -15419.1 -8823.17 -7365.27 -8149.21 14003.4 56732.3 138772 
481810 2.63854e+06 2.04898e+06 -3.34649e+06 -2.40736e+06 60607 336365 376560 390031 
423584 465193 469791 429746 353333 275324 266704 353008 467101 
547342 574507 568886 547920 507909 438355 334651 283958 309654 
186783 180685 223592 177205 142527 119003 101600 88462.2 -23500.2 
-23873.2 -24376.4 -25012.4 -25780.7 -26681.4 -27718.5 -28894.4 -30345.4 -32272.4 
-35299.7 -39776 -46164.8 -53661.8 -72915.2 -102571 -74497.6 -38314.2 -33429.8 
-33892.2 -35075.1 -35890.4 -35918.9 -35128.9 -33482.7 -31157.6 -28109 -23322.6 
-14664.5 -8466.01 -6898.42 -9600.02 12181.4 79138.8 256659 1.19519e+06 6.76856e+06 
6.82251e+06 -5.54871e+06 -6.07564e+06 -374707 308296 379824 403579 435052 461168 
464190 426805 358803 297353 301615 385469 486455 558127 581917 
575268 553056 514824 451552 359720 334477 320873 117018 120348 
196955 164013 134678 114379 98834.4 87746.5 -23583.3 -23949.1 -24452.1 
-25096.5 -25880.5 -26804.3 -27852.9 -29007.6 -30338.7 -32054.1 -34828 -39322.2 
-45889.7 -51987.9 -62847.9 -84038.5 -64054.7 -36562.9 -31901.5 -32569.2 -33786.7 
-34526.6 -34439.8 -33486.4 -31637.5 -29143.7 -26217 -22904 -14575 -8374.5 
-5439.28 -9422.67 4207.46 62378.9 181327 739983 3.63067e+06 4.13528e+06 -1.94455e+06 
-2.09302e+06 213641 413881 395775 420838 446501 462802 459169 419755 
355640 306890 324885 410961 498163 561654 586420 581066 560871 
527463 470959 367393 168609 127323 237553 249654 179305 150473 
126748 107620 94516.4 86495.5 -23662.1 -24027.1 -24533.7 -25193 -26001.8 
-26955.5 -28019.1 -29120.9 -30271.7 -31596.3 -33915.5 -38488.5 -45227.5 -48679.2 
-35973.6 -22682.6 -22648.7 -28025.4 -29043.3 -30997.2 -32434.7 -33149.9 -32954.7 
-31833.1 -29795.1 -27172.4 -24710.9 -22394.8 -16447.8 -8365.74 -2983.58 -5523.9 
4310.1 29886.5 -1029.91 -280098 -2.62911e+06 -2.26334e+06 3.67759e+06 4.74249e+06 1.16317e+06 
533955 402785 430223 459648 466550 455935 408178 342018 299820 
326675 422154 501005 559308 588110 586336 570619 545158 501079 
395592 37653.1 -203185 94897.8 276492 155026 135138 116874 99782.2 
89290 83632.2 -23739.9 -24104.1 -24619.9 -25299 -26144.5 -27139.5 -28225 
-29279.4 -30185 -30931.4 -32497.2 -36985.3 -45540.8 -51097.6 -24562.2 13552.8 
3754.15 -19782.7 -26219.8 -29417.2 -31086.5 -31794.4 -31490 -30197.4 -27964 
-25258.3 -23407.6 -23132.8 -17874.8 -6636.69 -355.919 -709.658 8333.69 9111.12 
-109016 -760449 -4.45489e+06 -4.09447e+06 4.63705e+06 5.87964e+06 1.31659e+06 503106 370079 
440651 471958 476246 455576 394142 319511 277696 314076 415803 
501994 553946 588192 591204 581102 566945 545758 483247 190015 
-354954 -322027 57643 97700.3 111074 105806 93615.2 85274.7 81279.2 
-23810 -24177.7 -24705.9 -25409.6 -26312.8 -27354.7 -28496.3 -29528.9 -30160.1 
-30099.9 -30425 -34361.2 -46778 -57954.4 -38799.5 593.646 -313.173 -17366.3 
-24522.7 -28043.8 -29830.3 -30490.5 -30068.3 -28601.4 -26151.8 -23261.7 -21915.7 
-24485.4 -18956.2 -5099.85 315.849 4566.24 16885.6 13060.6 -87118.6 -504084 
-1.90644e+06 -879750 1.91146e+06 1.62417e+06 506276 326712 323900 439069 482054 
484416 451353 372404 286409 239395 281802 402410 496328 551109 
587713 595161 591404 590204 600320 627732 637516 31108.4 -454943 
-158366 45804.1 91135 96732.6 90162.8 83551.4 79890.1 -23874.8 -24243.8 
-24787.7 -25518.7 -26493.3 -27623.3 -28867.5 -29920.5 -30356.8 -29200.9 -27526.7 
-29707.9 -44714.8 -57925.4 -45780.2 -15095.5 -8155.3 -17844.2 -23730.8 -27006.9 
-28709.3 -29266.7 -28716.3 -27080.1 -24389 -21185.7 -19693.2 -24261.2 -18174.2 
-2331.91 3172.93 12327.9 28759 35402 12765.6 -9914.4 400065 1.28222e+06 
-1.21254e+06 -2.5098e+06 -495545 141067 312938 447504 494964 490756 446672 
353674 257075 201906 246073 384278 488776 548768 587170 598080 
600141 610170 649928 769595 1.04568e+06 648023 -101857 -138832 32776.2 
81168.9 90847.9 87802.6 82879.7 79511.2 -23926.2 -24299.5 -24858.5 -25624.3 
-26679.7 -27936.7 -29354.3 -30560.8 -30923.3 -28542 -23699.4 -21726.6 -34657.7 
-44691.9 -34953 -20545.2 -14805.2 -19364.2 -23557.8 -26268.3 -27731.7 -28133.4 
-27448.8 -25663.4 -22757.2 -19167.8 -16873.6 -22010.1 -13242.2 2702.14 9220 
21058 40950.3 62293 117046 371969 1.43848e+06 1.83788e+06 -3.4554e+06 -4.78102e+06 
-989976 128868 354144 459789 496436 491400 442616 342072 237076 
176519 224125 370800 481695 547029 586818 599899 605922 621722 