# vtk DataFile Version 4.2
vtk output
ASCII
DATASET RECTILINEAR_GRID
FIELD FieldData 6
base_index 1 3 int
0 56 0 
avtOriginalBounds 1 6 double
0 20 17.5 20 0 0 
MeshName 1 1 string
amr_mesh

CYCLE 1 1 int
2560 
TIME 1 1 double
3.7642268983e-05 
VisItExpressions 1 0 string

DIMENSIONS 33 9 1
X_COORDINATES 33 float
0 0.625 1.25 1.875 2.5 3.125 3.75 4.375 5 
5.625 6.25 6.875 7.5 8.125 8.75 9.375 10 10.625 
11.25 11.875 12.5 13.125 13.75 14.375 15 15.625 16.25 
16.875 17.5 18.125 18.75 19.375 20 
Y_COORDINATES 9 float
17.5 17.8125 18.125 18.4375 18.75 19.0625 19.375 19.6875 20 

Z_COORDINATES 1 float
0 
CELL_DATA 256
SCALARS P float
LOOKUP_TABLE default
-2834.14 -2837.04 -2854.66 -2867.05 -2874.98 -2875.86 -2869.32 -2853.55 -2828.24 
-2791.73 -2743.91 -2685.63 -2616.95 -2539.53 -2453.64 -2364.33 -2272.01 -2179.86 
-2088.33 -2001.55 -1919.97 -1844.54 -1775.62 -1714.62 -1661.85 -1617.4 -1581.39 
-1554.47 -1536.67 -1525.68 -1523 -1511.31 -2467.09 -2471.62 -2484.73 -2495.11 
-2501.38 -2501.7 -2495.26 -2480.98 -2458.24 -2426.19 -2384.63 -2333.87 -2274.24 
-2207.06 -2133.22 -2055.68 -1975.69 -1895.58 -1816.52 -1740.89 -1669.69 -1603.75 
-1543.72 -1490.3 -1444.01 -1405.13 -1373.86 -1350.66 -1335.39 -1326.19 -1322.53 
-1316.2 -2096.03 -2100.7 -2111.04 -2119.55 -2124.48 -2124.35 -2118.3 -2105.69 
-2085.9 -2058.46 -2023.12 -1979.97 -1929.43 -1872.56 -1810.32 -1744.65 -1676.93 
-1609.01 -1542.13 -1477.85 -1417.24 -1361.04 -1309.92 -1264.29 -1224.72 -1191.54 
-1164.99 -1145.5 -1132.82 -1125.33 -1122 -1118.45 -1721.12 -1725.37 -1733.55 
-1740.36 -1744.18 -1743.74 -1738.33 -1727.61 -1711.08 -1688.38 -1659.28 -1623.85 
-1582.46 -1535.9 -1485.04 -1431.28 -1375.85 -1320.18 -1265.38 -1212.58 -1162.76 
-1116.48 -1074.36 -1036.73 -1004.08 -976.708 -954.892 -939.066 -928.937 -923.089 
-920.468 -918.461 -1342.64 -1345.63 -1351.18 -1356.15 -1358.86 -1358.31 -1353.9 
-1345.37 -1332.35 -1314.56 -1291.84 -1264.27 -1232.15 -1196.02 -1156.6 -1114.9 
-1071.91 -1028.66 -986.063 -944.981 -906.14 -870.042 -837.133 -807.749 -782.254 
-760.895 -743.932 -731.614 -723.634 -719.032 -716.768 -715.159 -961.017 -963.107 
-966.816 -970.212 -972.027 -971.503 -968.24 -962.035 -952.646 -939.86 -923.584 
-903.877 -880.947 -855.163 -827.054 -797.309 -766.643 -735.764 -705.335 -675.971 
-648.181 -622.334 -598.753 -577.701 -559.43 -544.131 -532.016 -523.242 -517.548 
-514.272 -512.606 -511.624 -577.316 -578.501 -580.569 -582.502 -583.52 -583.158 
-581.166 -577.408 -571.743 -564.048 -554.272 -542.45 -528.708 -513.263 -496.433 
-478.622 -460.255 -441.753 -423.514 -405.904 -389.226 -373.708 -359.546 -346.904 
-335.931 -326.749 -319.489 -314.218 -310.773 -308.77 -307.721 -307.151 -192.531 
-192.915 -193.579 -194.204 -194.532 -194.403 -193.734 -192.476 -190.583 -188.015 
-184.755 -180.815 -176.238 -171.095 -165.492 -159.563 -153.447 -147.286 -141.212 
-135.345 -129.787 -124.615 -119.894 -115.68 -112.023 -108.963 -106.545 -104.786 
-103.632 -102.957 -102.598 -102.412 
FIELD FieldData 1
avtGhostZones 1 256 unsigned_char
0 0 0 0 0 0 0 0 0 
0 0 0 0 0 0 0 0 0 
0 0 0 0 0 0 0 0 0 
0 0 0 0 0 0 0 0 0 
0 0 0 0 0 0 0 0 0 
0 0 0 0 0 0 0 0 0 
0 0 0 0 0 0 0 0 0 
0 0 0 0 0 0 0 0 0 
0 0 0 0 0 0 0 0 0 
0 0 0 0 0 0 0 0 0 
0 0 0 0 0 0 0 0 0 
0 0 0 0 0 0 0 0 0 
0 0 0 0 0 0 0 0 0 
0 0 0 0 0 0 0 0 0 
0 0 8 8 8 8 8 8 8 
8 8 8 8 8 8 8 8 8 
8 8 8 8 8 8 8 8 8 
8 8 8 8 8 8 8 8 8 
8 8 8 8 8 8 8 8 8 
8 8 8 8 8 8 8 8 8 
8 8 8 8 8 8 8 8 8 
8 8 8 8 8 8 8 8 8 
8 8 8 8 8 8 8 8 8 
8 8 8 8 8 8 8 8 8 
8 8 8 8 8 8 8 8 8 
8 8 8 8 8 8 8 8 8 
8 8 8 8 8 8 8 8 8 
8 8 8 8 8 8 8 8 8 
8 8 8 8 
