# vtk DataFile Version 4.2
vtk output
ASCII
DATASET RECTILINEAR_GRID
FIELD FieldData 6
base_index 1 3 int
6 10 0 
avtOriginalBounds 1 6 double
0.46875 6.40625 0.390625 3.59375 0 0 
MeshName 1 1 string
amr_mesh

CYCLE 1 1 int
2560 
TIME 1 1 double
3.7642268983e-05 
VisItExpressions 1 0 string

DIMENSIONS 77 83 1
X_COORDINATES 77 float
0.46875 0.546875 0.625 0.703125 0.78125 0.859375 0.9375 1.01562 1.09375 
1.17188 1.25 1.32812 1.40625 1.48438 1.5625 1.64062 1.71875 1.79688 
1.875 1.95312 2.03125 2.10938 2.1875 2.26562 2.34375 2.42188 2.5 
2.57812 2.65625 2.73438 2.8125 2.89062 2.96875 3.04688 3.125 3.20312 
3.28125 3.35938 3.4375 3.51562 3.59375 3.67188 3.75 3.82812 3.90625 
3.98438 4.0625 4.14062 4.21875 4.29688 4.375 4.45312 4.53125 4.60938 
4.6875 4.76562 4.84375 4.92188 5 5.07812 5.15625 5.23438 5.3125 
5.39062 5.46875 5.54688 5.625 5.70312 5.78125 5.85938 5.9375 6.01562 
6.09375 6.17188 6.25 6.32812 6.40625 
Y_COORDINATES 83 float
0.390625 0.429688 0.46875 0.507812 0.546875 0.585938 0.625 0.664062 0.703125 
0.742188 0.78125 0.820312 0.859375 0.898438 0.9375 0.976562 1.01562 1.05469 
1.09375 1.13281 1.17188 1.21094 1.25 1.28906 1.32812 1.36719 1.40625 
1.44531 1.48438 1.52344 1.5625 1.60156 1.64062 1.67969 1.71875 1.75781 
1.79688 1.83594 1.875 1.91406 1.95312 1.99219 2.03125 2.07031 2.10938 
2.14844 2.1875 2.22656 2.26562 2.30469 2.34375 2.38281 2.42188 2.46094 
2.5 2.53906 2.57812 2.61719 2.65625 2.69531 2.73438 2.77344 2.8125 
2.85156 2.89062 2.92969 2.96875 3.00781 3.04688 3.08594 3.125 3.16406 
3.20312 3.24219 3.28125 3.32031 3.35938 3.39844 3.4375 3.47656 3.51562 
3.55469 3.59375 
Z_COORDINATES 1 float
0 
CELL_DATA 6232
SCALARS P float
LOOKUP_TABLE default
1063.04 1067.7 1087.06 1121.05 1170.73 1242.1 1336.68 1451.14 1586 
1730.66 1880.52 2000.73 2080.05 2098.6 2049.8 1955.11 1824.4 1733.68 
1716.62 1912.82 2375.29 3165.57 4282.27 5638.82 7144.6 8698.1 10284.8 
11964 13739.7 15607.2 17532.7 19428.2 21277 22970.6 24482.2 25618.5 
26303.2 26280.7 25391.2 23504.9 20508.3 17976.9 17389 21894.6 31746.8 
41628.8 47662 49501.4 47893.2 44258.4 38860.1 32532 25335.3 17967.2 
10626.3 4049.97 -1554.79 -5732.49 -8449.38 -9745.44 -9837.62 -9489.16 -9032.07 
-8891.55 -9086.62 -9501.84 -10062.9 -10598.6 -11103.2 -11498.8 -11810.2 -11987.2 
-12060.8 -12019.2 -11868.6 -11623.1 1130.64 1136.01 1159.26 1198.98 1258.49 
1341.97 1452.62 1587.75 1747.24 1921.85 2100.71 2251.11 2350.66 2375.25 
2315.27 2186.02 2008.34 1847.71 1771.88 1918.69 2382.55 3252.18 4522.26 
6090.61 7795.54 9518.35 11260.3 13101.6 15077.2 17168.9 19320.9 21447.9 
23508.9 25418.7 27099.1 28379.3 29105.9 29006.5 27801.6 25159 20849.9 
15932.1 13116.9 18707.6 32640.4 45902.5 53703 55773.3 53669 49077.5 
42890.2 35640 27556.1 19113.6 10798.8 3266.95 -3015.82 -7643.09 -10493.3 
-11580.5 -11298.1 -10463.8 -9711.14 -9447.64 -9682.38 -10226.6 -10898.8 -11548.5 
-12126.2 -12591.5 -12939.7 -13152.1 -13232.2 -13181.4 -13010.5 -12733.3 1192.07 
1198.75 1226 1272.27 1341.81 1438.62 1566.88 1724.72 1912.34 2121.05 
2336.56 2523.53 2649.65 2683.08 2608.7 2438.64 2197.52 1949.01 1781.39 
1848.75 2290.08 3233.97 4684.49 6501.1 8432.18 10326.6 12207.9 14207.3 
16389.2 18723.2 21123.1 23495 25789.1 27924.7 29803.7 31247.9 32056.5 
31919.2 30436.8 27020.6 20968.1 12447.3 5238.9 11684.4 32318.4 50879.5 
60636.6 62703.7 59755.3 54069.2 46941.5 38758.5 29693.3 20106.7 10661.6 
2090.45 -4957.09 -10055.4 -13015.3 -13790.8 -12921.1 -11440.8 -10278.3 -9883.95 
-10200.1 -10909.4 -11731.5 -12501.1 -13163.9 -13694.6 -14087.8 -14328.4 -14416.8 
-14356.4 -14161.6 -13848.2 1246.34 1254.61 1286.14 1339.42 1419.48 1530.61 
1677.97 1860.6 2079.83 2327.78 2588.08 2820.54 2981.64 3027.89 2936.96 
2718.65 2397.82 2037.51 1740.13 1687.3 2070.6 3082.72 4752.37 6876.22 
9072.52 11135.3 13127.9 15273.8 17677.5 20276.6 22948.5 25579.4 28124 
30500.9 32604.3 34245.2 35179.5 35074.2 33415.5 29255.2 21108.8 7209.5 
-8420.78 -1464.64 30638.4 56798.2 68790.9 70470.4 66211.8 59155.4 50980.8 
41868.8 31761.5 20919.1 10172.9 430.16 -7478.08 -13088.7 -16139.5 -16461.2 
-14738.7 -12378 -10676.9 -10158.8 -10623 -11559.7 -12567.3 -13466.9 -14216.3 
-14811.8 -15250.3 -15520 -15614.9 -15542.3 -15319.8 -14966.2 1292.6 1302.53 
1338.5 1399.15 1490.26 1616.54 1784.28 1993.68 2247.87 2540.78 2855.16 
3144.8 3352.03 3416.79 3307.35 3032.85 2616.01 2116.01 1642.57 1414.55 
1688.91 2755.44 4699.26 7224.17 9746.2 11955.3 14022.3 16291.2 18929 
21831.3 24803.3 27710.6 30519.2 33157 35508.1 37376.3 38490.1 38506.5 
36826.3 32166.4 21494.3 662.909 -31750.1 -25681.9 27393.8 64482.1 78650.3 
79242.7 73031 64233 54942.4 44966.5 33783.5 21537.7 9276.58 -1820.56 
-10696.7 -16881.2 -20030.8 -19719.2 -16783.4 -13209.9 -10818 -10212.5 -10936 
-12188.6 -13421.6 -14456.7 -15288.5 -15945.7 -16431 -16726.3 -16827.9 -16739.9 
-16485.2 -16086.1 1329.96 1341.54 1381.99 1450.26 1552.82 1695.01 1884.18 
2121.95 2414.17 2758.01 3137.26 3499.38 3767.89 3859.06 3729.32 3390.27 
2861.93 2189.86 1484.01 1007.19 1097.2 2190.84 4488.52 7561.49 10491.9 
12819 14872.6 17237 20146.5 23400.2 26702.2 29899.6 32984.4 35900.2 
38525.1 40649.7 41987.9 42204.9 40738.5 36040.7 23713.8 -7203.94 -76319.8 
-78037.2 22565.8 75216.1 90815.9 89188.1 80175.6 69155.5 58751.9 48088 
35827.1 21986.4 7927.85 -4771.43 -14734.6 -21587.4 -24902.3 -23738 -19080.8 
-13829.2 -10570.3 -9970.6 -11128.7 -12817 -14315.9 -15481.5 -16385 -17098.6 
-17629.2 -17953.9 -18059.3 -17951.5 -17658.5 -17208.1 1357.7 1370.7 1415.55 
1491.57 1605.92 1764.53 1975.81 2243.03 2575.54 2975.85 3432.62 3887.03 
4237.77 4365.85 4212.65 3800.73 3148.19 2269.76 1259.92 436.158 229.95 
1297.74 4069.41 7921.97 11385.9 13758.4 15669.2 18076.3 21315 24997.4 
28671.2 32156.1 35520.5 38729.8 41651.5 44062.7 45658.8 46128.2 45148.1 
41351.5 29357.1 -13069.3 -142514 -161201 18420.6 90953.5 105938 100380 
87521.5 73665 62287.8 51307.8 37997 22296.2 6060.88 -8569.82 -19726.9 
-27378.4 -31041 -28758.9 -21642.1 -14057.6 -9741.58 -9347.44 -11213.8 -13492 
-15285.2 -16556.1 -17510.7 -18270.5 -18850 -19205.4 -19313.2 -19180 -18841.4 
-18331.9 1374.99 1389.05 1438.04 1521.8 1648.13 1823.47 2057.14 2354.05 
2727.85 3189.44 3737.22 4310.21 4772.79 4952 4768.71 4275.23 3489.98 
2367.32 963.98 -329.757 -1002.1 -69.0903 3356.65 8370.2 12555 14827.8 
16361 18759.4 22424.7 26651.7 30729.9 34499.9 38128.4 41630.8 44855.1 
47583.6 49449.3 50161.8 49982.6 48240.9 40287.6 4294.22 -110882 -109178 
55333.7 114867 124283 112726 94819.2 77320.4 65380.5 54801.1 40478.6 
22537.5 3600.5 -13415.2 -25802.8 -34382.1 -38848 -35135.5 -24456.7 -13605.9 
-8038.13 -8225.62 -11227.7 -14289.2 -16374.9 -17692.4 -18659 -19461.8 -20096 
-20486.9 -20595.5 -20429.7 -20036 -19458.3 1381.09 1395.55 1448.24 1539.53 
1677.86 1870 2125.85 2451.66 2865.69 3390.69 4044.19 4770.33 5387.69 
5636.86 5409.57 4826.37 3913.39 2507.57 593.612 -1303.3 -2698.68 -2128.41 
2206.48 9016.68 14209.3 16098.9 16876 19163.1 23457.4 28407.3 32927.6 
36938 40803.2 44575.3 48103.4 51158.8 53266.2 54128 54871.4 56382.1 
54232.9 44508.2 17890.3 45977.5 142037 145688 143928 126160 101711 
79355.2 67804.5 58868.6 43550 22864.7 512.866 -19599.3 -33044.5 -42679.6 
-48914.3 -43460.2 -27511.6 -12029.1 -5049.07 -6492.05 -11279.2 -15345.7 -17653.3 
-18900.4 -19821.6 -20665.1 -21368.8 -21804.5 -21912.3 -21704.5 -21243.5 -20586.1 
1375.11 1389.06 1444.74 1543.13 1693.31 1902.12 2179.6 2532.38 2982.73 
3568.8 4341.28 5266.58 6103.01 6448.67 6146.79 5463.04 4452.57 2738.97 
157.859 -2518.83 -5005.06 -5241.71 398.501 10042.1 16700.8 17681.9 17041.2 
19146.4 24400.9 30347.9 35322.6 39477 43539.9 47583.3 51404.4 54785.5 
57080.4 57714.5 59442.7 64657.6 63985.2 63469.3 74503.6 123776 181982 
172294 163945 140507 107755 78583.3 69127.5 64052.7 47561 23455.8 
-3238.15 -27619.6 -41451.4 -52116.3 -62178.7 -54709 -30731.9 -8582.89 -145.159 
-4028.26 -11573 -16863.8 -19202.6 -20179.4 -20978.7 -21874.4 -22676.4 -23171.9 
-23275.4 -23012.2 -22467.5 -21716.7 1356.18 1368.43 1426.11 1531 1692.75 
1918.02 2216.3 2593.06 3071.95 3708.32 4607.51 5792.83 6948.66 7428.86 
6984.04 6179.01 5145.93 3116.12 -384.904 -4012.57 -8177.34 -10092.6 -2496.9 
11805.1 20620.9 19699.3 16604.7 18419.9 25271.9 32624.5 38006.6 42105.4 
46303.2 50635.2 54698.1 58449.7 60894.5 60570.2 61786.9 72852.7 65426.4 
60641.1 80616 133741 184711 194808 184254 156160 112178 72674.5 
68446.8 71215 52867.7 24557.7 -7703.58 -38409.2 -50846.5 -62101.8 -80145.3 
-70475.4 -33803 -1988.18 7606.69 -786.664 -12510.9 -19151.4 -21098.5 -21486.2 
-22085.8 -23073 -24025 -24601.8 -24695.3 -24357.5 -23708.8 -22847.9 1323.39 
1332.31 1390.67 1501.18 1674.07 1915.5 2233.76 2631.06 3126.33 3788.69 
4808.28 6333.3 7969.83 8645.33 7912.4 6947.54 6044.17 3712.48 -1161.78 
-5810.75 -12511.8 -17885.7 -7264.78 14923.1 27020.9 22303.8 15001.2 16538.3 
26123.6 35487.9 41099.1 44752 49009.3 53654 57855.2 62097.2 64805.1 
61923.9 59619.9 82121.6 93728.9 90163.3 114905 158209 208069 219434 
206607 174349 114378 57738.6 64531.3 82181.3 59666.1 26599.3 -12827.2 
-53766.8 -60693.8 -70989.1 -105327 -93445 -36105.2 9899.15 19607.3 3109.02 
-14824.3 -22651.7 -23392.8 -22727.5 -23069 -24244.2 -25429.9 -26115.9 -26187.3 
-25747.9 -24968.5 -23978.4 1275.66 1279.3 1336.52 1451.43 1634.78 1892.01 
2229.77 2644.99 3140.92 3784.01 4886.76 6851.25 9236.41 10215.6 8898.5 
7683.24 7212.47 4628.18 -2574.69 -8109.74 -19013.5 -31373.8 -15510.1 20561 
37649.4 25617.3 11250.1 12759.3 27128.6 39393.7 44756.8 47259.8 51520.7 
56488.7 60567.3 65484.2 69208.9 61394.8 51568.7 90725.6 146830 152830 
153041 177229 227700 242376 232438 197500 114482 31573.2 58048.2 
100085 68214.6 29770 -18035.1 -77483.4 -69652.9 -74440.8 -142468 -128500 
-36287.1 30692.6 37969.9 7188.41 -19780.3 -27974.4 -26054.2 -23712.4 -23820.7 
-25378.3 -26922.9 -27747 -27770.8 -27189.9 -26245.8 -25104.1 1212.17 1207.75 
1261.45 1379.02 1571.88 1844.31 2201.57 2635.35 3116.61 3664.87 4750.55 
7267.14 10858.2 12358.9 9857.25 8199.64 8691.22 6072.39 -5567.36 -10967.6 
-28434.1 -54281.3 -31468.7 30632 55790.1 29611.7 3534.62 5719.23 28796.4 
45082.1 49153.7 49221 53606.9 59108 62417.8 68410 74985.2 59275.8 
44841.8 92771.4 159343 186777 177235 194531 237107 264406 264044 
230384 114522 -7625.63 51722.9 130475 77007.4 34621.8 -21086 -117710 
-75058.8 -62903.6 -200894 -184098 -30991.4 66370.1 65712.2 10132.4 -29585.9 
-35926.2 -28875.4 -24102.8 -24200.9 -26487.7 -28562.8 -29542.6 -29469.6 -28689.7 
-27538 -26218.2 1131.5 1115.95 1162.89 1280.77 1481.69 1767.99 2144.66 
2604.19 3066.61 3405.57 4251.58 7413.82 13005 15498 10604.3 8085.02 
10103.7 7340.75 -12400.6 -18820.9 -27692.5 -56324.1 -10509.7 67500.1 84644.2 
33522.1 -11601.4 -6674.89 32155.1 53851.1 54487 49884.9 54884.3 61566.4 
63029.9 70299.3 81685.5 57028.4 25931.1 77786.2 144088 183505 188531 
214229 255771 293483 303422 282183 117633 -77386.4 42762.9 188032 
82498.1 42527.4 -15680.9 -192368 -72329.3 -15743.9 -300715 -275059 -12512.3 
126463 107045 8929.72 -47899 -47384.9 -31207.5 -23311.2 -24038.3 -27630.1 
-30448.3 -31567.4 -31308.7 -30248.5 -28836.6 -27309.8 1033.11 1001.88 1037.79 
1152.7 1359.62 1656.8 2050.08 2552.26 3026.73 3002.63 3155.07 6947.44 
15927.6 20475.9 10732.1 6647.83 10707.9 1882.19 -10619.6 -23759.7 -21392.1 
-17861 42117.7 100805 73141.8 9427.52 -40733.7 -27371.3 40273.5 67909 
60947.8 47528.1 54610.4 63911.6 61294.9 70081.6 93776.5 60981.6 -1703.09 
34188.8 121880 176938 202262 246236 294644 327325 350575 367192 
129804 -216646 29505 308310 69939.4 53829.3 20081.2 -330931 -47840.4 
114043 -481799 -426463 36750.6 225962 167794 -2799.96 -80722.3 -62984.9 
-31588.2 -20394.8 -23167.3 -28951.3 -32736.1 -33907 -33315.1 -31863.1 -30128.5 
-28366.8 916.015 863.454 882.601 990.053 1200.12 1502.47 1899.85 2468.77 
3069.14 2519.3 1114.33 5169.75 19956.4 29017.4 9486.92 1596.18 5518.83 
-24253.4 -25682.5 -24881.1 -19070.4 3676.58 52310.6 78649.3 25107 -21969.4 
-41834.4 -5874.14 72820.7 87060.1 68426.3 39940.1 51277.7 64244.6 55377.1 
64589.3 110318 69592.9 -12247.2 11729.1 112429 181935 224188 266838 
323883 362561 399731 510347 168470 -503127 15272 565280 53845.8 
74656.6 158159 -361198 -152568 192488 -545796 -549676 152949 388270 
255939 -37878.5 -137608 -82355.9 -27129.4 -14053.5 -21566.1 -30764 -35660.2 
-36662 -35506.8 -33518.9 -31391.7 -29372.5 779.504 698.405 693.016 786.762 
996.659 1295.42 1659.92 2302.87 3314.37 2182.35 -2440.33 621.811 25392.9 
46618.9 27249.6 7739.21 -8221.91 -43954.9 -48059.5 -26522.6 -11279.1 8068.74 
37809.7 47409.5 5069.09 -16137.9 -6219.57 35673.5 94004.9 93117.7 67813 
36603.7 54263.4 56194.8 41075.6 20151.1 38806.6 15606.4 -5882.79 27218 
113443 187549 237116 271748 338323 390529 429980 759070 290545 
-1.11052e+06 -155905 1.07669e+06 239852 121674 287986 -180484 -265019 375452 
-38841.3 -406781 299592 655765 385198 -121918 -233616 -102239 -12428.6 
-2636.25 -19562.1 -33645.1 -39540.2 -39931.8 -37880.8 -35183.6 -32596.7 -30304.8 
622.543 504.425 463.884 535.079 741.901 1028.81 1274.4 1881.49 3974.77 
2605.82 -7934.7 -9789.2 21108.1 48880.4 53552.2 38267.1 -2882.99 -36902.7 
-32344.2 -20329.2 -6286.61 9353.92 28339.2 33024.2 11482.3 826.417 14867.2 
51056.7 85829.3 82958.4 51798.9 34217.9 62439.1 65049.1 41363.3 -40649.6 
-81671.8 -63924.8 -26016.6 28080.9 110100 187711 244573 273651 357034 
415843 389459 1.20013e+06 738786 -1.97432e+06 -1.14852e+06 1.07506e+06 538716 208739 
281560 4.05324 -114678 509033 368696 -123363 581023 1.06431e+06 479111 
-310955 -391709 -112282 22103.2 15428.9 -18282.8 -38572.3 -44787.6 -43796.7 
-40400.3 -36802.7 -33701.7 -31140.4 446.078 279.23 189.103 224.442 427.464 
706.791 680.382 791.423 4918.36 5093.05 -13877 -23781.1 381.229 9672.67 
33242.5 43804.7 7162.82 -19749.1 -16994.8 -12213.9 -2393.61 9618.03 22358.1 
25957.8 15612.7 10162.8 21346.1 46410.2 68681.2 65689.5 41318.1 36282.2 
65168 76618.2 47539.8 -49206.8 -106016 -81177.2 -40025.3 13700.8 98363.2 
183386 233400 263305 390781 452739 134011 1.92163e+06 2.41173e+06 -1.00217e+06 
-1.40719e+06 438373 548256 275518 250229 96767.9 71058.1 389798 304604 
95297.6 642084 728227 -4936.27 -700562 -643318 -85893.8 91793 40210.2 
-20382.5 -47063 -51858.3 -48258.4 -42960.1 -38282.7 -34648.6 -31846.8 249.965 
21.4336 -138.601 -160.436 39.2591 353.103 -71.1604 -2160.38 5549.02 16144.9 
-6197.47 -31560.2 -16220.9 -14662.1 4412.4 24640.5 7906.66 -7991.63 -9372.36 
-6651.83 353.853 9448.44 18377.1 21700.1 17291.6 15696.7 24660.2 42082.4 
56893.5 56384.6 45008.3 46012 66081.2 73492.9 35228.9 -57386.3 -96892.9 
-77227.4 -50612.4 -9626.46 79580.4 168462 209801 245740 458750 578673 
-754612 1.60678e+06 3.21333e+06 197115 -491319 152401 398440 291464 245999 
159774 157539 311998 278917 200804 342245 -95275.8 -891435 -1.53217e+06 
-1.05961e+06 34549.4 218778 67200.8 -30880.6 -61065.6 -61067.4 -53154.6 -45363.4 
-39493.1 -35368 -32396.7 37.3963 -269.485 -526.744 -642.622 -452.632 48.1079 
-605.876 -9513.93 -401.713 36081.6 20456.9 -21327 -11399.9 -6859.57 4591.2 
15487.6 7345.07 -2283.96 -4505.77 -2752.66 2346.37 9188.89 15713.9 18735.1 
17653.8 18484.1 25849.6 38296.1 48619.1 49533 44775.7 48635.6 64389.1 
65320.9 16969.2 -81031.4 -107206 -81315.1 -64691.6 -47400.2 49698.6 156758 
179195 204056 570274 1.11288e+06 -2.32423e+06 -12126.2 3.24984e+06 267568 -3476.03 
194958 332946 291746 252268 201530 203905 279327 265319 213405 
169148 -288655 -1.10898e+06 -1.62115e+06 -678008 511320 429540 80845.5 -58439.5 
-82550.8 -72274.6 -58047.4 -47303.9 -40271.8 -35789.7 -32762.1 -189.072 -591.176 
-981.52 -1255.59 -1124.42 -165.97 832.634 -10725.1 9037.63 61449 47892.9 
1371.07 -3602.18 -1336.09 5333.67 11072.2 6844.19 900.714 -1137.6 24.8467 
3791.32 8957.72 13902.1 16741.7 17464.2 19544.6 25728.1 34915.5 42389.5 
43731 41729.6 46059.7 59000.9 54167.6 -10266.2 -127820 -134935 -88698.5 
-80095.8 -94887.9 -20745.4 88678.8 97262.8 62556.7 606290 3.87754e+06 -284829 
-287852 3.96487e+06 859127 253911 255658 311746 291484 261463 230056 
231615 268382 260984 223703 161260 -94634.4 -304046 427828 1.45216e+06 
1.48282e+06 707154 41989.3 -115198 -112554 -84453.5 -62116 -48339.2 -40425.8 
-35842.7 -32930.1 -422.412 -937.52 -1503.63 -2036.06 -2147.01 -679.563 5572.66 
8126.17 41755.6 79593.9 54706.6 14665.8 3954.36 3039.53 6280.14 9093.75 
6656.24 2879.96 1263.42 2052.01 4854.09 8776.78 12625.4 15274 16892.4 
19537.3 24796.1 31824.8 37420.5 38458.1 36457.6 38921.3 49130.2 40059.1 
-39803.7 -180599 -168932 -97891.8 -96341.6 -136047 -113097 -32356.3 45632.5 
-332056 -715439 6.05501e+06 1.51331e+06 -3.26521e+06 2.25729e+06 946770 387665 303186 
309558 293758 270976 250393 250301 268109 263867 240053 201558 
134621 442285 1.7822e+06 2.70974e+06 2.24979e+06 920003 -125021 -212557 -148994 
-95152.2 -64039.6 -47927.5 -39773.6 -35487.1 -32902.4 -655.575 -1296.15 -2079.96 
-3004.73 -3786.56 -2865.18 7864.11 25671 53594.9 68574.9 47213.1 19815.3 
8920.88 6266.03 7303.39 8394.78 6760.44 4250.63 3017.19 3554.23 5641.37 
8633.34 11679 14093.9 16070.8 18845.3 23343.5 28918.4 33285.2 33702.2 
29678.7 25847.9 31745.6 23291.8 -57516.8 -202415 -189044 -82744.7 -104849 
-150956 -167176 -44271.3 239247 -600627 -6.28833e+06 779977 1.01606e+06 -5.37859e+06 
94512 608721 404866 328262 313180 297639 279836 265592 264365 
273096 271493 259910 248469 271190 571126 1.37135e+06 2.2585e+06 2.22056e+06 
572259 -560715 -348202 -182942 -100205 -62204.7 -45527.1 -38182.4 -34719.1 
-32714.1 -877.93 -1648.05 -2675.57 -4122.19 -6112.13 -8448.26 -6664.42 2243.63 
23126.4 42965.1 36645.1 20686.3 11816.6 8590.02 8293.94 8355.65 7065.8 
5286.81 4331.89 4681.85 6225.49 8506.19 10927 13059.5 15064 17698.1 
21532.8 26138.6 29771.1 29664.5 22749.9 6432.6 11075.9 11731.8 -56439.1 
-186191 -167366 -52753.3 -110332 -199962 -229402 -90602.7 759375 1.55691e+06 
-6.91628e+06 1.28275e+06 8.01937e+06 -1.04528e+06 57798.3 448807 389782 337319 317078 
302031 287829 277467 275830 280541 281460 279583 286766 339084 
554497 945325 1.05802e+06 -412105 -1.94538e+06 -1.38418e+06 -473057 -196236 -93951.9 
-55072.6 -40804.4 -35648.6 -33604.5 -32419.4 -1078.86 -1968.77 -3230.94 -5227.2 
-8741.2 -16377.8 -27222.6 -27093.3 -758.771 25438.8 27911.2 19669.3 13281.8 
10191.5 9187.26 8643.11 7490.53 6124.62 5344.39 5539.16 6657.26 8378.56 
10284.1 12092.5 13913.7 16228.7 19434 23361.9 26673.3 26371.9 17211.2 
-10030.7 3172.59 12872 -40427.6 -144745 -124742 -33984.5 -110456 -252228 
-358245 -369529 1.28984e+06 1.00358e+07 5.44266e+06 5.50844e+06 9.91642e+06 1.63067e+06 376706 
399844 372247 338277 319706 306152 294800 287084 285593 288850 
292031 296877 313682 366618 493753 580484 -170922 -2.91458e+06 -3.80519e+06 
-1.66242e+06 -436903 -165919 -71897.5 -41839.6 -33831.7 -32365.9 -32293.9 -32122 
-1248.45 -2233.58 -3676.35 -6086.69 -10908.9 -24017.2 -43202.7 -34773 -2055.67 
16608.9 21607.8 18116.3 13903.8 11266.5 9959.09 9077.23 7973.72 6833.54 
6145.23 6199.45 6972.67 8238.94 9698.33 11150.6 12652.7 14504.2 17048.9 
20456.5 23689.2 23785.2 13198.8 -3035.44 24216 22755 -22680.8 -88586.6 
-89406.5 -43511.4 -117393 -254489 -499347 -1.07836e+06 -425001 1.45968e+07 8.79157e+06 
-5.48383e+06 529234 778602 376018 364824 354462 335103 320898 309714 
300783 295067 294085 297119 302111 311096 331471 375646 443635 
408868 -224021 -1.47914e+06 -1.14954e+06 -201599 -212275 -92141.1 -33964.8 -23088.8 
-25262.8 -28770.4 -31036.6 -31939.8 -1378.81 -2425.34 -3959.06 -6498.47 -11526.4 
-25185.8 -52518.1 -50927.8 -11392.2 10347.2 17322.2 16669.8 14116 11999.4 
10619.1 9564.95 8475.97 7451.55 6795.4 6715.73 7199.48 8082.81 9142.28 
10217.8 11307.8 12571.1 14322.5 17227.5 20758.1 18833.9 3057.87 -1590.67 
33513.2 23797.8 -15504.5 -58540.9 -65268.9 -51829.4 -99403.8 -208012 -545502 
-2.08857e+06 -7.85695e+06 2.67056e+06 2.74988e+06 -9.31018e+06 -3.38468e+06 -9741.88 273408 328917 
337802 330378 321071 312624 305861 301784 301496 304825 311167 
322374 343233 378842 418520 386618 151564 471772 1.53299e+06 967076 
-99640.2 -3278.78 15208 -1158.07 -16439.2 -25546.7 -30151.6 -32032.7 -1467.85 
-2540.07 -4075.36 -6457.82 -10467.5 -18420.1 -38994.8 -47097.2 -17851.1 6682.59 
14852.1 15643.2 14195.3 12535.2 11191.2 10061 8973.88 8000.6 7335.71 
7125.87 7358.66 7909.99 8603.31 9293.46 9913.39 10471.1 11173.2 13341.7 
17596 14631.5 -5149.42 -6993.08 21369.8 12624.8 -16380.6 -45621.7 -52879.5 
-49506.4 -69714.9 -103139 -291109 -1.99537e+06 -1.40569e+07 -6.47022e+06 9.59416e+06 3.15871e+06 
-1.0428e+06 -29971.9 227016 302838 324322 325562 320812 315009 310165 
307478 307939 311738 318979 331181 351260 380926 411771 414377 
416538 984140 1.76774e+06 953545 1920.9 112411 71990.5 20442.7 -9141 
-23525.6 -29991.7 -32528.2 -1516.8 -2586.87 -4068.55 -6192.18 -9098.36 -12137.5 
-13227.1 -13815.4 -5076.33 7915.86 14060.6 15129.2 14295.6 12974.2 11702.4 
10546.4 9455.74 8495.31 7795.17 7457.9 7467.63 7724.51 8079.94 8390.25 
8518.71 8281.74 7506.05 7829.94 13706.9 13552.9 -2293.15 -3525.4 8619.37 
826.605 -19810 -39815.5 -46528.7 -45225.5 -39900.4 36743.9 334852 887693 
-5.04995e+06 -256024 1.20332e+07 7.52058e+06 515111 135842 224500 288460 315004 
321707 320541 317012 313814 312307 313488 317759 325531 337975 
356839 382772 412092 441973 538262 1.01049e+06 1.5562e+06 1.01156e+06 338593 
285821 132686 36751.5 -5774.61 -23537.8 -30862 -33556.7 -1530.07 -2580.83 
-3992.72 -5911.43 -8300.38 -10110.4 -8214.62 1211.89 8906.55 12042.8 14320.1 
15052.2 14481.2 13377.9 12174.4 11014.6 9916.48 8945.85 8193.93 7732.35 
7540.05 7531.73 7575.61 7526.46 7188.8 6165.42 3421.54 51.1998 9167.78 
16080.8 3537.15 -2935.26 -1019.04 -8789.25 -23952.8 -38066.1 -44518.9 -45008.4 
-27293.1 117328 882514 4.93336e+06 9.63965e+06 2.14631e+06 -2.12742e+06 1.91998e+06 425956 
178258 228027 281435 309468 319262 320527 318782 316921 316395 
318216 322885 330905 343137 360622 383781 412150 453421 564357 
899465 1.35788e+06 1.48684e+06 1.07264e+06 546230 177841 39460.8 -8767.75 -26236.7 
-32951.6 -35149.8 -1514.52 -2535.5 -3879.81 -5669.42 -8043.82 -11440.9 -18355.8 
-11983.6 6012.06 13011.3 14771.1 15275 14759.3 13777 12621.5 11464.4 
10354.8 9359.98 8546.71 7964.69 7587.25 7337.73 7095.57 6719.89 5994.31 
4413.99 126.708 -5112.39 9147.71 20208.1 5294.2 -4407.63 -8154 -16212.7 
-28043.7 -38817.6 -45800.2 -50328.1 -45209.4 34547.6 583603 4.20922e+06 1.01304e+07 
-1.27103e+06 -9.36609e+06 -1.47297e+06 6521.22 145195 226540 279543 307228 318284 
320923 320423 319565 319835 322191 327160 335223 346972 362976 
383467 408986 447536 534052 745549 1.17965e+06 2.04303e+06 1.90422e+06 763001 
157673 18542.1 -19462.9 -31773.6 -36323.4 -37281.1 -1473.69 -2462.08 -3739.98 
-5441.29 -7803.8 -11519.9 -21076.2 -21461.8 -6712.5 8729.25 15537.7 15669.3 
15107.8 14180.2 13049.7 11895.3 10770.5 9743.14 8863.76 8166.09 7617.89 
7147.35 6642.62 5976.49 4966.46 3247.34 -409.465 -3589.86 9317.88 17824.8 
3567.88 -7196.38 -13670.1 -21873.8 -31818.2 -40843 -48325.2 -57340.2 -83053.3 
-180398 -493401 -1.32781e+06 2.6507e+06 919848 -3.63402e+06 -1.09844e+06 -84316.9 122539 
224595 281602 307721 318664 321750 321966 321817 322691 325476 
330654 338623 349742 364205 381872 402701 429587 472315 532448 
570237 693540 589416 245686 17724.6 -30675.5 -37562.3 -39794.8 -40558.2 
-39808 -1417.29 -2366.7 -3581.41 -5176.63 -7341.29 -10727.4 -16267.9 -18023 
-8541.45 9444.3 17258.9 16305.5 15480.5 14582.1 13457.5 12306.4 11163.7 
10099.4 9152.63 8345.1 7639.11 6964.88 6217.16 5286.82 4052.91 2433.31 
397.471 -69.9832 7904.61 10791.3 -227.363 -10585.9 -18047.2 -26182.8 -35153.9 
-43278.9 -50180.8 -60174.6 -108589 -350126 -1.37209e+06 -4.53956e+06 861349 6.32664e+06 
2.20041e+06 57243.5 22183.4 117632 225100 287050 310460 320144 322961 
323410 323694 325012 328129 333442 341241 351678 364632 379493 
394888 407906 406004 323577 -132783 -1.54164e+06 -1.9284e+06 -744673 -169044 
-88140.8 -57602.2 -48706.6 -45223 -42554.7 -1344.95 -2258.83 -3405.49 -4875.56 
-6799.75 -9423.61 -12248.9 -12457.8 -5169.46 11755.6 17930.3 16807.7 15825.6 
14938.1 13837.2 12694.4 11533.6 10431 9418.46 8507.99 7656.54 6794.05 
5818.48 4633.55 3167.56 1519.22 154.878 438.799 4782.62 5713.79 -4363.8 
-14210 -21577 -29373.8 -38112.6 -45839.6 -51109.9 -55673.6 -90616.2 -323211 
-1.62045e+06 -4.88981e+06 1.5909e+06 8.4325e+06 3.93022e+06 711105 102871 111152 227828 
294382 315096 322431 324405 324707 325196 326826 330198 335602 
343205 352992 364589 376984 387724 390052 359970 207164 -393642 
-1.99663e+06 -2.34793e+06 -945305 -242073 -114561 -71429.3 -56744.9 -49795.9 -45270.5 
-1268.62 -2142.5 -3222.94 -4568.91 -6263 -8214.99 -10153.4 -9617.66 -7719.65 
6086.38 15427.3 16598.5 15945.6 15208 14184.8 13055.2 11878.8 10739.4 
9664.91 8659.75 7675.51 6639.72 5449.15 4008.79 2258.67 347.089 -1229.99 
-1745.57 2722.47 3663.01 -8321.97 -18212.3 -24291.4 -31612.8 -40835.6 -48884 
-52712.2 -45860.6 -23565.6 -25078.9 -858291 -4.18625e+06 187920 6.24484e+06 3.25098e+06 
748385 127240 108966 234330 303973 320916 325174 325861 325772 
326302 328150 331727 337203 344631 353862 364361 374914 382719 
380356 344521 202868 -252412 -1.14854e+06 -1.30694e+06 -599656 -232192 -120673 
-79672.5 -62889.8 -53772.5 -47779.8 -1184.8 -2027.14 -3048.58 -4284.22 -5747.52 
-7332.83 -8636.09 -8720.37 -10211.2 -2998.19 7907.7 12807.4 15685.5 15356.9 
14487.8 13386.9 12197.3 11024.6 9894.1 8804 7700.73 6507.75 5116.35 
3419.88 1328.42 -1087.74 -3497.16 -5430.21 1815.24 3532.51 -12898.8 -23008 
-26020.1 -33096.7 -43516.9 -53099.9 -57616.3 -41190.7 53170.4 470254 1.67621e+06 
1.47792e+06 -1.32791e+06 -1.25893e+06 554489 347416 131567 121913 249389 317259 
327165 327948 327117 326500 326980 328990 332749 338308 345614 
354428 364139 373561 380297 378978 355594 276906 72521.3 -245118 
-559782 -548087 -230003 -114882 -82884.4 -67195.8 -57003.3 -49918.4 -1106.02 
-1916.37 -2889.04 -4031.7 -5341.32 -6639.41 -7635.88 -7799.91 -8880.46 -5504.72 
3523.47 11490.4 15273.6 15354.4 14749.1 13685.6 12486.9 11286.3 10107.5 
8944.02 7737.37 6406.07 4833.33 2890.9 433.568 -2648.67 -6729.28 -12019.6 
-2601.09 2672.55 -17710.5 -28985.4 -26652.5 -33687.1 -46155.4 -58838.7 -67771.5 
-55701.3 55813.7 754666 4.67826e+06 1.04717e+07 -945892 -9.73255e+06 -2.33685e+06 -62023.5 
131085 155146 277793 331928 332890 330280 327948 326790 327195 
329352 333294 338965 346227 354784 364013 372908 379942 383125 
380696 381970 429049 713572 734226 165746 -105688 -90649.4 -82494 
-70252.6 -59465.3 -51609.9 -1026.21 -1817.45 -2752.45 -3830.82 -5025.85 -6148.87 
-6897.57 -6891.67 -6338.64 -1262.01 7286.29 13790.4 14615.2 15326 14981.5 
13948.2 12745.4 11523.6 10305.9 9082.3 7790.06 6343.14 4616.69 2459.66 
-336.249 -4063.49 -9692.4 -18790.5 -16546.5 -8463.88 -23386.4 -36107.1 -25552.9 
-33548.6 -48570.7 -65454.7 -82732.4 -96086.4 -81602.8 239668 2.9335e+06 9.3584e+06 
1.95877e+06 -6.69061e+06 -1.71212e+06 125508 246323 231372 314003 343379 337136 
331738 328140 326540 326910 329233 333381 339214 346523 354986 
363992 372742 380578 388595 405388 468911 697365 1.48648e+06 2.00119e+06 
989311 55090.8 -68470.2 -82202.1 -73074.5 -61162.4 -52788.8 -957.24 -1731.14 
-2643.89 -3689.13 -4809.79 -5873.31 -6492.08 -6331.64 -4929.3 247.167 10572.8 
14417.1 12919.1 15383.8 15173.9 14157.1 12970.4 11735.3 10489.9 9221.13 
7863.45 6327.62 4483.54 2164.08 -878.291 -5056.61 -11358.4 -21869.4 -26639 
-17630.2 -25707.7 -41548.9 -22181.9 -32266.2 -50635.7 -71540.2 -97923.8 -146410 
-297640 -877301 -3.67212e+06 -3.41893e+06 6.07738e+06 7.51169e+06 1.80352e+06 751082 424681 
309287 339248 348608 339017 331970 327514 325669 326099 328637 
333032 339085 346543 355068 364061 372828 381208 391937 418555 
508681 801299 1.5928e+06 1.84307e+06 737727 12158.4 -74415.3 -86536.3 -76930.7 
-62199.4 -53356.2 -892.647 -1661.75 -2567.16 -3601.49 -4718.26 -5752.33 -6364.76 
-6131.35 -4495.46 1407.92 11495.4 13983.1 12497 15626 15380.7 14335.7 
13162.8 11920.7 10659.4 9361.85 7960.85 6366.11 4447.04 2031.58 -1136.7 
-5491.66 -11862.6 -21224.9 -25468.2 -16297 -24202.2 -36900 -20333.1 -32392.7 
-52841.7 -75636.1 -106037 -171375 -407405 -1.44597e+06 -7.04198e+06 -9.87377e+06 8.0105e+06 
1.46269e+07 3.68727e+06 1.10977e+06 517338 336333 345783 347564 338388 330800 
325965 324133 324755 327572 332262 338597 346307 355050 364208 
373046 381290 391355 415467 496373 753618 1.39789e+06 1.41388e+06 388375 
-88722.7 -102041 -98394.9 -82513 -62094.8 -53347.6 -838.511 -1607.71 -2522.55 
-3583.3 -4727.13 -5821.67 -6469.58 -6310.33 -5243.78 919.806 9316.04 13787.9 
13854 15767.3 15528 14511.3 13318.5 12079.1 10814.5 9505.45 8084.71 
6463.13 4515 2075.8 -1090.15 -5381.53 -11697.5 -21905.5 -24887.6 -15202.8 
-26108.3 -41309.9 -25112.5 -35987 -55196.7 -77155.7 -103893 -155106 -315725 
-884680 -3.06661e+06 -1.93459e+06 6.15895e+06 6.78925e+06 1.82879e+06 868003 485043 309431 
332122 341482 335469 328132 323470 321938 322898 326061 331088 
337766 345829 354947 364465 373459 380974 387253 397999 438189 
588740 1.04455e+06 983522 110446 -217161 -142274 -110238 -83273.8 -61029.3 
-52883.3 -786.484 -1569.67 -2508.51 -3610.23 -4851.06 -6060.61 -6889.24 -6797.21 
-6911.36 -1273.58 6072.85 13502.8 16407.3 16113.1 15664.1 14627.2 13436.8 
12209.2 10954.6 9651.88 8235.56 6619.74 4688.1 2294.61 -748.344 -4723.28 
-10382.3 -18827.3 -15209.4 -5709.62 -22480.3 -37387.3 -29539.3 -39053.8 -57353.1 
-76659.2 -95073.4 -113896 -117019 128922 2.48479e+06 8.29004e+06 2.23963e+06 -5.06589e+06 
-1.08334e+06 372944 333829 199804 284727 330920 330224 323875 320037 
319136 320575 324134 329525 336593 345107 354767 364885 374282 
381019 382103 373259 349496 315664 302643 -124225 -557772 -357790 
-172381 -118364 -82736.5 -60485.5 -52138.9 -744.594 -1542.52 -2517.81 -3693.51 
-5079.49 -6540.24 -7599.07 -7457.46 -8496.39 -3334.44 5227.28 11080.1 16730.3 
16445.3 15739.6 14694.5 13517.9 12310.4 11078.6 9800.2 8412.44 6834.11 
4960.85 2671.59 -155.978 -3627.86 -7913.06 -12661.3 -4993.15 1088.37 -15290.3 
-28983 -31360 -41788.7 -59395.6 -76273.4 -86043.5 -77114.4 26173.7 617992 
3.68678e+06 8.33563e+06 -433954 -7.15789e+06 -1.43619e+06 245746 228513 70159.4 214263 
314202 321948 318005 315777 315821 317850 321827 327585 335074 