# vtk DataFile Version 4.2
vtk output
ASCII
DATASET RECTILINEAR_GRID
FIELD FieldData 6
base_index 1 3 int
6 10 0 
avtOriginalBounds 1 6 double
0.46875 6.25 0.390625 3.671875 0 0 
MeshName 1 1 string
amr_mesh

CYCLE 1 1 int
3840 
TIME 1 1 double
5.6071248116e-05 
VisItExpressions 1 0 string

DIMENSIONS 75 85 1
X_COORDINATES 75 float
0.46875 0.546875 0.625 0.703125 0.78125 0.859375 0.9375 1.01562 1.09375 
1.17188 1.25 1.32812 1.40625 1.48438 1.5625 1.64062 1.71875 1.79688 
1.875 1.95312 2.03125 2.10938 2.1875 2.26562 2.34375 2.42188 2.5 
2.57812 2.65625 2.73438 2.8125 2.89062 2.96875 3.04688 3.125 3.20312 
3.28125 3.35938 3.4375 3.51562 3.59375 3.67188 3.75 3.82812 3.90625 
3.98438 4.0625 4.14062 4.21875 4.29688 4.375 4.45312 4.53125 4.60938 
4.6875 4.76562 4.84375 4.92188 5 5.07812 5.15625 5.23438 5.3125 
5.39062 5.46875 5.54688 5.625 5.70312 5.78125 5.85938 5.9375 6.01562 
6.09375 6.17188 6.25 
Y_COORDINATES 85 float
0.390625 0.429688 0.46875 0.507812 0.546875 0.585938 0.625 0.664062 0.703125 
0.742188 0.78125 0.820312 0.859375 0.898438 0.9375 0.976562 1.01562 1.05469 
1.09375 1.13281 1.17188 1.21094 1.25 1.28906 1.32812 1.36719 1.40625 
1.44531 1.48438 1.52344 1.5625 1.60156 1.64062 1.67969 1.71875 1.75781 
1.79688 1.83594 1.875 1.91406 1.95312 1.99219 2.03125 2.07031 2.10938 
2.14844 2.1875 2.22656 2.26562 2.30469 2.34375 2.38281 2.42188 2.46094 
2.5 2.53906 2.57812 2.61719 2.65625 2.69531 2.73438 2.77344 2.8125 
2.85156 2.89062 2.92969 2.96875 3.00781 3.04688 3.08594 3.125 3.16406 
3.20312 3.24219 3.28125 3.32031 3.35938 3.39844 3.4375 3.47656 3.51562 
3.55469 3.59375 3.63281 3.67188 
Z_COORDINATES 1 float
0 
CELL_DATA 6216
SCALARS P float
LOOKUP_TABLE default
-990.657 -846.984 -678.569 -481.802 -257.053 -4.84535 274.224 575.731 898.976 
1232.2 1571.42 1903.54 2221.88 2514.02 2777.08 3026.71 3283.31 3575.17 
3901.1 4216.21 4489.38 4718.6 4920.65 5118.83 5313.76 5516.52 5731.07 
5974.09 6252.45 6613.57 7083.36 7710.68 8508.32 9469.19 10578.1 11682.7 
12728.6 13480.1 13839.3 13538.4 12531.1 10540.5 7314.14 1998.39 -6219.25 
-15307.6 -24869.8 -33086.8 -35291.3 -24788.5 -11710.6 -3769.53 672.168 3250.48 
4038.32 2926.61 228.964 -2928.79 -6049.86 -8454.08 -9954.87 -10569.8 -10403.9 
-9834.35 -9009.12 -8166.27 -7354.39 -6622.33 -5958.86 -5347.48 -4777.43 -4238.35 
-3720.43 -3232.62 -1096.33 -940.513 -756.578 -541.407 -294.82 -16.7569 291.382 
627.269 986.699 1360.64 1739.95 2112.02 2464.02 2780.98 3056.19 3305.17 
3565.78 3881.7 4251.63 4610.79 4903.69 5129.75 5327.7 5523.1 5718.05 
5918.4 6135.93 6384.6 6677.44 7056.87 7573.14 8275.69 9193.42 10320.5 
11629.2 12984.1 14284 15309.4 15866.2 15711.2 14748.3 12836.7 9567.08 
3684.93 -6555.52 -17883.1 -28992.3 -43173.8 -49896.3 -31830.3 -12352.4 -3009.9 
1722.3 4528.92 5362.91 3740.36 235.372 -3847.36 -7632.11 -10461.4 -12093.1 
-12578.7 -12161 -11265.6 -10166.4 -9097.75 -8127.58 -7280.72 -6531.62 -5853.2 
-5221.72 -4622.72 -4050.76 -3506.75 -1207.06 -1039.51 -840.698 -607.384 -339.016 
-35.1628 302.868 673.464 1071.5 1487.98 1910.79 2325.53 2714.49 3057.21 
3339.76 3578.03 3830.61 4169.59 4597.41 5014.07 5324.26 5535.74 5720.06 
5910.34 6100.3 6293.34 6510.34 6763.94 7064.45 7456.77 8013.06 8793.74 
9839.79 11147.6 12685 14322.8 15935 17287.6 18103.9 18111.5 17233.2 
15479 12461.9 6216.67 -6997 -21137.8 -32545 -56372.8 -74950.5 -41663 
-11893 -1506.57 3019.44 6053.04 7023.21 4768.98 158.206 -5031.72 -9619.67 
-12914.7 -14638.4 -14908 -14116 -12804 -11360.6 -10032.3 -8890.02 -7926.89 
-7095.76 -6351.61 -5660.35 -5003.11 -4373.43 -3773.51 -1323.13 -1144.52 -931.499 
-680.479 -390.594 -61.0442 307.202 713.394 1152.13 1613.92 2083.92 2545.24 
2975.77 3346.69 3631.54 3843.38 4068.52 4428.47 4937.4 5433.23 5756.36 
5933.03 6091.71 6275.91 6456.21 6634.22 6848.37 7108.13 7410.32 7806.11 
8394.91 9255.02 10439 11942.8 13736.4 15694.8 17682.9 19437.1 20585.4 
20768.5 19966.2 18455.3 16168.8 10099.9 -8240.78 -26183 -32397.1 -75477.6 
-126091 -57458.9 -8978.21 1023.01 4521.05 7762.49 9101.41 6011.49 -84.3149 
-6616.33 -12139.3 -15929.1 -17682.6 -17605.9 -16284.3 -14437.8 -12572.2 -10951.8 
-9628.23 -8552.31 -7645.99 -6841.3 -6092.76 -5376.65 -4688.01 -4029.85 -1445.08 
-1256.28 -1029.8 -761.647 -450.648 -95.6805 302.904 745.492 1227.12 1737.68 
2259.18 2771.98 3250.5 3654.94 3937.88 4100.44 4266.19 4642.07 5270.52 
5882.95 6209.45 6315.98 6433.94 6617.39 6783 6933.8 7144.09 7416.12 
7713.47 8097.71 8708.28 9648.36 10980.2 12695 14768.4 17088.8 19523.9 
21773 23337.7 23705.8 22907.3 21651.4 20822.9 16403.9 -10724.4 -32011.3 
-30002.2 -99105.1 -203951 -80118.7 -1853.56 4710.35 5822.57 9753.45 11715.7 
7482.22 -614.258 -8752.68 -15338.2 -19648 -21337.7 -20729.3 -18673.7 -16142.4 
-13772.2 -11832.1 -10327.2 -9149.95 -8179.75 -7322.19 -6519.38 -5744.34 -4994.27 
-4275.1 -1573.56 -1375.65 -1136.63 -852.073 -520.553 -140.691 287.987 767.567 
1294.42 1857.75 2435.72 3005.96 3541.24 3989.57 4269.25 4349.19 4402.16 
4782.03 5594.97 6388.06 6698.33 6674.45 6734.6 6933.83 7079.76 7182.8 
7392.35 7688.45 7974.35 8323.21 8938.13 9958.06 11449.5 13389.9 15763.9 
18485.1 21446.7 24312.8 26414 26968.5 26011.3 24740.1 26311 25354.2 
-11442.8 -43713.7 -31682.2 -101277 -212424 -77349.8 7362.74 9070.02 6548.32 
11374.7 14992 9161.29 -1625.96 -11638.2 -19394.5 -24240.6 -25732.9 -24336.8 
-21278.5 -17876.2 -14915.8 -12639.9 -10968.1 -9711.52 -8695.42 -7795.24 -6941.65 
-6107.14 -5292.52 -4508.85 -1709.28 -1503.52 -1253.07 -952.945 -601.66 -197.724 
260.279 777.003 1351.53 1972.46 2612.43 3246.54 3850.32 4361.11 4643.45 
4594.58 4443.79 4799.47 5907.27 6992.46 7247.11 6986.48 6970.29 7229.57 
7348.03 7364.96 7582.26 7931.02 8198.69 8472.9 9065.54 10165.6 11832.1 
14011.6 16698.5 19854.2 23427.3 27071.1 29894.9 30636.9 29219.3 27268.1 
31096 29424.1 4673.94 -18823.8 -30688.9 -65957.1 -113474 -40951.8 8589.87 
12180.7 5818.08 12677 19044.1 10985.6 -3424.06 -15517.4 -24508.5 -29916.4 
-31025.7 -28482.9 -24068.1 -19574.3 -15941.6 -13332 -11528.2 -10228.8 -9192.74 
-8262.8 -7362.39 -6466.63 -5583.15 -4729.98 -1852.97 -1640.94 -1380.31 -1065.62 
-695.486 -268.692 217.086 770.323 1395.1 2079.74 2787.84 3491.35 4178.23 
4783.64 5091.26 4853.25 4343.94 4611.09 6200.37 7773.1 7894.39 7205.63 
7100.23 7521.16 7598.07 7452.49 7696.68 8160.43 8400.22 8532.73 9058.16 
10242 12108.7 14539.6 17545.5 21149 25410.9 30036.1 33900.3 34855.4 
32370.8 28572.8 32447.1 35027.2 49547.9 62560.1 19406.5 -11476.8 -34673.7 
-16725.2 12338.9 14765 6518.55 15063.3 24057 12417.7 -6537.47 -20675 
-30875.2 -36925.5 -37419.2 -33222.9 -26979.3 -21140.5 -16773.9 -13864.8 -11989.6 
-10700.3 -9676.38 -8731.77 -7787.11 -6825.82 -5866.92 -4937.96 -2005.56 -1789.05 
-1519.81 -1191.68 -803.745 -355.798 155.03 742.628 1420.02 2176.41 2959.69 
3735.2 4520.24 5272.5 5662.07 5156.47 4016.04 4062.48 6467.02 8881.21 
8704.44 7233.8 7052.11 7854.87 7855.24 7392.7 7701.95 8410.22 8604.38 
8481.64 8872.74 10154.7 12264.2 14953.9 18256.4 22295.4 27293.7 33149.5 
38545.1 39859.9 35755.3 27927.3 30690.6 42065.6 98897.1 129032 86287.8 
54414.1 14828.3 3882.14 16440.7 19324.2 12882.2 21124.8 29616.9 12514 
-11898.1 -27348.7 -38676.3 -45613.9 -45209.8 -38620.9 -29896.8 -22424.9 -17308.6 
-14187.6 -12337.7 -11127.9 -10155 -9210.75 -8221.58 -7187.17 -6143.62 -5130.4 
-2167.86 -1949.25 -1673.24 -1333 -928.334 -461.379 70.1847 687.574 1419.72 
2259.69 3127.1 3969.37 4861.75 5839.95 6435.41 5581.18 3335.56 2874.75 
6688.6 10599.3 9789.41 6877.74 6706.5 8344.83 8176.77 7087.22 7553.64 
8742.28 8856.42 8277.95 8436.22 9866.21 12299.8 15251.4 18789.9 23170.3 
28890.2 36284.3 44092.2 45973.1 39190.2 26798.1 28426.2 50743.2 107115 
133109 111282 87447.8 41907.4 16041.4 21237.3 26204.3 24779 30967.5 
35187.3 10001.5 -20775.9 -35526.8 -47968.7 -56456.8 -54807.6 -44736.2 -32630.7 
-23214.2 -17414.6 -14250.6 -12565.1 -11521.9 -10643.4 -9711.93 -8673.58 -7554.48 
-6413.87 -5306.87 -2341.11 -2122.99 -1842.49 -1491.45 -1070.84 -587.143 -41.2035 
597.4 1385.36 2327.85 3292.61 4181.64 5171.05 6487.82 7538.72 6302.56 
2124.16 541.221 6812.13 13439.6 11323.1 5754.32 5844.01 9238.63 8673.66 
6334.71 7183.47 9295.04 9244.76 7867.25 7658.5 9344.85 12244.6 15457.4 
19141.1 23666.4 29908.4 39083.6 49057.8 52671.2 42486.5 28789.9 41934.2 
75817.1 105745 125162 114520 74226.8 34514.9 18420.8 24719.5 33315.1 
39241.4 42805.8 40851.9 3916.1 -35112.5 -44644.3 -58566.5 -70175.8 -66787.2 
-51550.2 -34841.2 -23209.9 -16938.4 -14007.4 -12678.2 -11905.7 -11163.4 -10252 
-9153.38 -7932.75 -6678.91 -5465.15 -2525.98 -2311.96 -2029.72 -1669.19 -1232.8 
-734.291 -183.072 461.134 1302.87 2379.76 3466.08 4356.87 5386.12 7185.1 
9168.98 7680.92 81.5808 -3900.63 6727.62 18388.6 13588.2 3088.65 4057.86 
11079.4 9548.38 4691.87 6401.97 10321.9 9910.4 7144.9 6389.52 8541.89 
12150.1 15607.5 19299.9 23649.3 29973.8 40771.2 52715.4 61695.4 47372.9 
34072.4 62784.2 85284.4 92209.8 108566 87797.6 41399.7 15243.2 12349.7 
26814.5 37761.6 54749.3 55902.9 48617.7 -5213.98 -58710.9 -52553.5 -69887.6 
-88056.3 -82048.8 -58917.6 -35935.9 -21996 -15714.7 -13430.4 -12700.9 -12314.2 
-11745 -10851.3 -9672.5 -8326.3 -6938.44 -5603.48 -2723.83 -2518.04 -2237.68 
-1869.1 -1415.92 -903.103 -358.701 263.547 1149.08 2415.44 3673.79 4482.14 
5395.55 7820.96 11598.6 10360.8 -3093.17 -12302.2 6091.31 27382.5 17011.9 
-2624.05 511.541 15001.3 11124.8 1283.75 4969.53 12328.3 11112 5901.5 
4369.36 7365.41 12105.7 15753.7 19243 23015.2 28600.1 41688.6 60604.3 
77994.1 63801 40468.1 72090.3 85421.6 74856.6 76856.6 43111.4 7799.87 
-1125.2 2966.28 25597.7 36498 76624.3 68707.5 65987.8 -16455.2 -98450.7 
-54097 -80957.4 -112524 -102024 -66486.7 -34967.5 -19044.4 -13620.5 -12552.5 
-12699.8 -12807.1 -12433 -11536.3 -10243.4 -8737.99 -7190.29 -5717.28 -2935.24 
-2743.51 -2469.84 -2095.02 -1622.12 -1091.94 -568.695 -15.9098 884.004 2435.33 
3974.44 4560.84 5012.03 8113.17 15180 15640.3 -7927.35 -27944.1 4541.3 
44028.2 23411.5 -13778.8 -6047.78 23339.1 14061 -6311.54 2067.1 16352.6 
13262.9 3714.75 1154.84 5686.78 12306.8 15951.8 18921.7 21573.1 24887.8 
41343.3 75219.8 97460.3 97866.7 69292 84883.1 83225.8 51388.6 41429.2 
24013.9 10456 -6340.02 -11979.1 24167.8 28400.5 112787 86422.4 105114 
-29723.7 -169885 -37806.5 -90673.1 -148261 -128762 -73375.8 -30370 -13691 
-10589.2 -11475.7 -12784.4 -13467.9 -13282.7 -12338.8 -10880 -9170.23 -7430.82 
-5801.15 -3161.57 -2990.78 -2730.68 -2352.44 -1854.31 -1296.38 -807.453 -403.868 
435.987 2435.72 4485.2 4644.15 3946.92 7407.38 19932.6 25656.3 -5518.41 
-43167 -10191.5 55576.3 49971.5 -5091.2 -10032.3 34215.9 16556.2 -22664.3 
-3098.02 24393.6 16917.3 -257.574 -3921.44 3355.87 13169 16277.7 18305.2 
18929.5 16886.7 34462.1 89860.2 105620 119208 110428 111207 89703.2 
25953.6 5162.24 10242.5 28262.4 -14851.9 -38434.5 30173.7 1312.91 182964 
129709 192425 -50488.1 -313079 24946.9 -99827.3 -204405 -165223 -77565.2 
-19511.4 -5210.3 -6741.64 -10417.5 -13112.4 -14403.4 -14361.4 -13294.8 -11595.5 
-9623.29 -7654.16 -5847.43 -3402.76 -3262.65 -3025.91 -2649.53 -2117.95 -1508.72 
-1056.26 -930.663 -325.454 2396.37 5428.36 4916.59 1828.59 4364.69 23581.9 
41986.7 30719.4 -2403.83 -10402.4 42400.6 72262 19128.1 -35328.2 4367.5 
12581.2 -18934.5 2301.01 38136.1 22675.3 -7868.97 -12159.3 -332.025 15233.6 
16694.7 15790.9 14036.8 544.498 4222.75 80732.2 91076.8 120297 130664 
142549 118796 27500.1 -7136.39 -1947.4 54182.3 -31566.7 -102316 -418.89 
-229434 299237 528261 22363.4 -232892 -21165.7 331452 -117031 -297580 
-215058 -75106.7 1797.14 6946.07 -2562.95 -9755.81 -13892.7 -15734.6 -15737.7 
-14437.8 -12399.2 -10093.2 -7850.96 -5844.65 -3659.73 -3561.71 -3362.78 -2998.75 
-2424.39 -1719.27 -1271.8 -1620.53 -1643.5 2242.93 7181.86 5654.67 -1915.3 
-3397.75 21381.7 38747.7 55137.5 44458.8 11650.7 32434.4 59117.8 22491 
-44010.1 -24982.2 31994.9 27725.2 31641 49050.5 23760.3 -19997.8 -25519.4 
-6852.1 21033.9 20560.5 5849.68 1672.16 -28154.5 -66613.5 26960.4 73064.3 
118618 144989 178776 182533 72569.1 20811.4 8512.07 109492 22049.1 
2415.98 -3479.05 -573852 189367 833140 -136660 320314 1.23814e+06 664143 
-266126 -452817 -279477 -57835.9 40192.2 22445.2 810.445 -10043.1 -15369 
-17596.3 -17488.4 -15798.6 -13292.9 -10568.1 -8006.5 -5778.48 -3930.75 -3890.27 
-3749.97 -3418.51 -2796.82 -1922.16 -1370.83 -2454.14 -3958.45 1771.96 10521.8 
7923.1 -7145.43 -19364.8 6767.44 12310.9 34462.8 40684.2 23083.3 30922 
41141.7 17434.4 -22494.2 -13089.5 41780.2 58558.6 44837.4 32798.4 117.2 
-31225.1 -35657.6 -9688.4 35297.3 33665.4 -7811.25 -6323.95 -38998.6 -111314 
-24091 51347.9 109949 151243 219065 269485 94278.9 -22858.7 -21602.8 
267736 435519 531209 293615 -438342 60979.8 652017 122204 1.01128e+06 
1.73188e+06 586144 -425453 -621476 -350901 -9569.38 106554 38622.1 1258.77 
-11931.3 -17771.2 -20124.3 -19688.6 -17400.9 -14269.6 -11028.7 -8100.31 -5633.23 
-4214.7 -4249.21 -4196.53 -3935.19 -3280.03 -2134.4 -1213.75 -3303.6 -8098.57 
509.008 16131.5 10620.6 -12220.8 -35258.8 -16457.4 -6079.7 20301.8 29943.8 
24339.9 28178.9 31162.4 16235.9 -4787.23 1553.61 33818 46434.1 35002.2 
8085.4 -19609.1 -14006.7 3946.12 17155.1 41251.1 29498.1 -16986.2 -1298.04 
-25066.2 -91049.2 -34135 44137 108381 146059 246974 392810 58961.7 
-169294 -196959 180140 797594 917823 537586 -33699.7 158495 483963 
370754 886744 1.14072e+06 378224 -453329 -837388 -509226 97498.2 218778 
46501.3 -4626.88 -15891 -21217.6 -23445.6 -22415.1 -19258.8 -15306.9 -11443.7 
-8101.74 -5391.17 -4506.42 -4636.97 -4710.29 -4581.33 -3955.09 -2441.05 -700.878 
-3631.54 -15725.6 -5960.94 19711.4 8877.88 -23899.9 -56457.1 -38073.3 -8469 
14008.3 23801.1 23188 25289 25499 16184.7 5048.85 9807.93 27523.5 
35517.7 27074 6410 -8104.65 15444.2 46237.1 33217.3 -553.269 -36858.2 
-59620.2 -19551.9 -33263.3 -76579.8 -29876.4 58050.7 120620 115898 248695 
605186 -15796.5 -398403 -299211 -204610 511964 777741 486123 163226 
238730 424366 448800 725700 808588 310363 -351076 -704311 -72386.6 
650441 391361 23935.8 -20885.2 -21561.4 -25617 -27716.9 -25761.9 -21373 
-16366.1 -11768.4 -7978.58 -5024.17 -4800.47 -5047.48 -5293.29 -5390.18 -4953.13 
-3077.43 -29.7361 1063.37 -14728.4 -19270.6 680.872 -838.151 -28565.3 -56002.8 
-35086.2 -7931.58 10303.3 19317 21271.2 22739.2 22170.4 16445.3 10594 
13930.9 24068 28573.3 22811.6 10201.1 3421.6 19595.9 36890.4 16320.4 
-44374 -87147 -73943 -37257.5 -45294 -80324.7 -35600 79268.1 143238 
79069.7 240746 1.11016e+06 -72754.8 -1.01507e+06 -141922 -118264 234172 553830 
433110 260545 291628 404159 462843 613233 621613 298385 -124177 
-126955 758363 1.15327e+06 381775 -78387.4 -48342.7 -26565 -30615.1 -33120.1 
-29808.1 -23709.5 -17376.8 -11938.5 -7684.06 -4508.5 -5086.3 -5468.56 -5936.38 
-6386.48 -6414.31 -4778.51 -1887.18 16180.5 30444.8 6594.26 -11560.4 -7973.79 
-20749 -36249.8 -24450 -5875.61 8201.59 16166.9 19194.6 20621.9 20086.9 
16662.7 13602.3 15818.6 21699.5 24151.6 20187.8 12408.7 8879.41 16910.1 
22927.7 4967.43 -39421.5 -72669 -69208.8 -46841.6 -62019 -105689 -57935.5 
83273.3 157722 30437.3 169766 2.25895e+06 1.0482e+06 -953437 419290 389079 
257765 431268 392383 307386 324240 396776 454082 536018 516317 
308392 74835.4 192907 640279 492858 -185953 -304321 -75174.7 -24982.2 
-36119.8 -40121.9 -34674.2 -26193.1 -18229.3 -11871.8 -7166.49 -3809.32 -5352.37 
-5879.98 -6611.46 -7548.55 -8411.36 -8409.38 -7171.04 27013.4 66410.1 43103.4 
3249.48 -5196.47 -14592.8 -22943.3 -16305.2 -3593.95 7098.55 14036.6 17380.4 
18878.3 18662.2 16714.2 15156.8 16613.4 19991.8 21219.1 18428 13429.3 
11095.6 14254 14262.5 -1018.16 -33588.3 -62126.8 -67611.2 -47409.9 -74514.9 
-137255 -93119.9 63516.3 151157 -53697.1 -440272 3.97829e+06 3.64901e+06 -1.5529e+06 
-577574 330672 254936 362024 363744 328720 343221 392900 439294 
484065 457835 324896 190848 232651 253431 -66362.9 -592655 -487099 
-50407.4 -8370.21 -43577.8 -49632.5 -40423.6 -28651.4 -18761.6 -11461.7 -6365.36 
-2903.1 -5583.39 -6253.59 -7267.21 -8789.38 -10850.9 -13235.1 -7321.55 29860.2 
57358.4 42208.9 12707.6 -246.437 -8804.22 -14115 -10172.4 -1484.83 6750.1 
12615.5 15908.7 17476.8 17600.5 16594.8 15849.4 16796.7 18705 19201.5 
17125.9 13659 11619.1 11827.9 8722.65 -4545.65 -31745.1 -60823.1 -74373.9 
-45034.2 -72577 -143202 -119704 32213.1 193126 -132367 -2.77682e+06 1.35666e+06 
3.41298e+06 -2.58488e+06 -2.08061e+06 -60160.6 207667 318928 344043 337695 353588 
389788 424991 449851 425973 341287 262594 276603 289092 143489 
-470192 -403888 124999 25759.9 -58551.8 -63098.3 -46968.9 -30780.3 -18755.3 
-10582.4 -5220.25 -1753.82 -5764.27 -6556.19 -7830.76 -9952.34 -13535.8 -20211.6 
-11319.4 32971.4 52574.4 36293.1 15528.5 3571.14 -4002.73 -7855.64 -5528.62 
501.51 6801.87 11700.1 14761.8 16354.9 16751.7 16338.4 16034.9 16642.1 
17681.7 17737.4 16073.3 13383.4 11270.3 9636.58 4741.25 -6174.13 -30016.4 
-64465.2 -97944 -51454.1 -81276.9 -127595 -122468 -36781.9 300342 472766 
-5.80686e+06 -3.99627e+06 4.81276e+06 1.71869e+06 -1.05227e+06 -47708.8 199645 297598 332036 
341403 358922 386939 413370 427842 409291 356061 310679 320835 
351848 339499 325327 838247 769396 49752.3 -93748.1 -81863.2 -53676.7 
-32045 -17922 -9103.36 -3670.86 -354.152 -5881.09 -6754.4 -8215.57 -10805.3 
-15881 -28019.7 -25192.2 21188.4 43547.1 29770 15914.8 6114.38 -257.772 
-3306 -1970.5 2253.38 7091.43 11140.6 13895.5 15456.4 16035.9 15984.5 
15918 16300 16822.9 16619.2 15182.5 12829.2 10400.3 7308.53 1104.2 
-5351.5 -22183.1 -61911.6 -112968 -55640.2 -149268 -117220 -121731 -215524 
257098 2.74547e+06 -456683 -1.06164e+06 7.40401e+06 5.72177e+06 414425 150375 227607 
292461 326285 343310 361662 384551 404781 414125 401266 368813 
344682 359782 416857 574047 1.51102e+06 2.50223e+06 1.33322e+06 -109219 -168358 
-104774 -58888 -31629 -15919.7 -6894.65 -1681.07 1323.61 -5924.11 -6823.23 
-8349.09 -11101.4 -16539.8 -29212 -32499.3 327.225 24620.6 22006.6 14815.3 
7714.18 2560.96 54.482 765.73 3761 7488.32 10821.2 13250.3 14732.9 
15412 15569.1 15622.3 15853.2 16071.8 15730.6 14429.8 12170 9210.37 
4319.12 -3581.14 -3411.87 -611.032 -37428.3 -48660.8 -25438.9 -218313 -143238 
-170619 -470117 -249532 5.79852e+06 1.11407e+07 1.29959e+06 -1.23499e+06 3.0683e+06 650396 
263999 256590 295306 324894 344759 363373 382857 398972 405980 
398131 379437 368809 388334 456129 673176 1.58221e+06 1.59246e+06 -110521 
-736804 -273697 -123462 -59686.1 -28534.3 -12432.1 -3862.74 772.678 3247.57 
-5891.28 -6753.83 -8206.11 -10770.2 -15500.1 -24480.1 -30059.1 -14867.2 5244.73 
14549.5 13510.9 8782.26 4657.04 2548.01 2872.31 5025.52 7918.73 10659.3 
12773 14144 14855.5 15117.9 15220.6 15346.8 15392.4 15008.2 13832.1 
11541.4 7284.7 -485.849 -9438.85 -7755.52 7823.64 -16284.7 17008.7 9672.32 
-176486 -164356 -258156 -771832 -1.90045e+06 1.68284e+06 9.40526e+06 -3.04204e+06 -9.32518e+06 
-90455.1 372105 280958 274917 300194 325990 346505 364869 382010 
395478 401554 397712 387992 385359 404771 459074 579246 764405 
-687311 -2.10931e+06 -1.21521e+06 -304340 -121287 -52601.6 -21950.1 -7284.29 -2.5973 
3668.54 5409.99 -5786.66 -6557.08 -7817.31 -9933.72 -13521.4 -20149.4 -29291.7 
-30775.9 -14279.9 8429.44 12947 9647.81 6217.97 4391.35 4483.97 6064.37 
8337.06 10595.6 12418.4 13657.7 14351.1 14648.8 14755.8 14803.5 14757.1 
14413.1 13433.9 10957.5 1376.4 -13417.9 -11571.1 -8768.86 3522.19 -8800.04 
17891 6229.8 -100931 -128355 -244052 -912612 -4.51128e+06 -1.04557e+07 730141 
3.46979e+06 -4.321e+06 -424357 239673 276671 283387 304442 328352 348791 
366622 382077 393834 399603 398737 394744 396370 412495 445017 
468660 246688 -1.17234e+06 -1.66182e+06 -605000 -180887 -92152.1 -36347.9 -11630.8 
-514.667 4581.75 6934.24 7739.74 -5622.4 -6259.51 -7250.8 -8787.71 -11070 
-14679.5 -20870.9 -31697.6 -19612.9 8241.77 14111.4 10537.1 7350.74 5725.07 
5699.24 6901.2 8717.76 10589.1 12151.1 13248.5 13888 14172.8 14252.3 
14231.7 14138.1 13907.4 13291.2 10617.7 -11002.5 -40325.7 -12579.8 -6764.95 
3711.24 1168.6 7073.11 -2443.48 -59008.1 -74297.9 -79201 -328977 -3.37121e+06 
-1.20778e+07 2.01201e+06 1.30805e+07 1.95201e+06 244516 262421 276002 287211 307618 
331075 351577 368862 383060 393582 399326 400510 400060 403722 
416090 433093 419620 220039 -329528 -116311 127520 -130298 -56701.7 
-13038.5 1749.41 7516.01 9697.68 10436.3 10184.6 -5414.42 -5896.36 -6590.11 
-7520 -8479.36 -8838.16 -5142.27 5116.56 15564.1 21513.6 17414.4 11330.7 
8058.88 6632.88 6593.01 7560.7 9049.43 10612.2 11944.2 12896.9 13458.1 
13696.3 13723.4 13630.9 13498.5 13413.1 13242.5 11111 -23364.3 -68630.3 
-9338.69 6028.44 5594.38 2376.8 -723.194 -12025.2 -42578.2 -27894.4 145527 
941328 3.9777e+06 -19138.2 1.33065e+06 6.76263e+06 2.18084e+06 479946 287287 274191 
285871 310326 333945 354883 371702 384886 394436 400159 402656 
404302 408866 418546 428668 417751 345095 417526 689011 204783 
-206965 -12718.8 15532.4 16829.9 15960 15002.5 14057.4 12611.6 -5180.33 
-5505.44 -5914.78 -6311.79 -6274.28 -4265.34 6238.13 30881.9 45714.9 37077.1 
21126.3 11402 8270.13 7167.88 7221.4 8071.73 9329.8 10647.6 11778.1 
12588 13055.3 13222.9 13176.3 12996.1 12796.9 12779.8 12925.2 8290.92 
-26380.5 -62835.6 6053.52 16448.3 7484.33 375.851 -7113.85 -20400.8 -42329.7 
-24303.7 212710 1.63106e+06 9.60347e+06 7.45043e+06 -5.42172e+06 -4.43085e+06 293528 329886 
269154 262778 280552 310344 337033 358748 375188 387473 396154 
401726 404969 407781 412684 420841 429394 431450 442137 695980 
1.0077e+06 505351 14805.2 78274.9 48440.2 31968.9 23959.3 20005.1 17615.4 
15004.8 -4938.94 -5118.75 -5288.03 -5290.69 -4610.23 -1937.97 5791.76 20594.9 
30514 30475.2 18285.3 9651.97 7894.86 7386.05 7636.77 8462.68 9562.72 
10685.1 11639 12311.1 12675.1 12755.2 12615.5 12323.6 12004.5 11903.7 
11419.8 822.395 -34332.2 -43027.8 17585.4 17234.4 5601.09 -2935.45 -12760.1 
-28656.9 -55279.1 -77815.4 -19921.6 612771 5.85484e+06 5.34391e+06 -4.94941e+06 -5.59529e+06 
-433838 199551 233249 235893 267584 308739 340422 363255 379364 
390710 398539 403788 407332 410699 415646 423006 431884 442610 
478596 656521 887762 764901 437936 200618 80729.5 45210.5 30796.6 
24228.6 20875.7 17180.7 -4702.73 -4761.92 -4752.59 -4507.01 -3594.64 -1265 
3216.36 6143.03 -1474.63 1168.18 6389.17 5873.4 7075.8 7367.78 7889.93 
8763.35 9755.33 10718.7 11517.2 12058.4 12314.7 12295.7 12046.1 11612.6 
11097 10660.5 9182.1 -3652.93 -44580.7 -43892.4 12362.4 11918 2277.77 
-6563.65 -17564.9 -35661.1 -71184 -152629 -405221 -1.33975e+06 -1.63539e+06 2.74435e+06 
2.66908e+06 -864351 -63051.6 208021 193255 188087 243617 305182 344470 
368564 384240 394503 401435 406163 409674 413183 417973 424767 
433819 447482 478762 534671 513767 579044 544796 251122 97518.1 
54619.1 35564.1 27408.3 23278.7 19158.1 -4486.39 -4449.66 -4320.22 -3955.33 
-3105.81 -1480.25 608.495 -1345.46 -13531.1 -12688.5 -2506.54 1730.57 6413.56 
7241.97 8026.84 9004.32 9914.66 10744.9 11405.9 11824.5 11973 11848 
11475.2 10871.6 10085 9083.48 6311.56 -4848.27 -30331.4 -26259.9 5409.71 
6115 -1310.45 -9973.59 -21215 -39502.4 -77151.4 -186253 -620001 -2.34196e+06 
-4.00374e+06 3.06911e+06 6.71183e+06 1.71163e+06 421975 265911 159214 123173 209075 
299942 349610 374850 389799 398788 404670 408718 411941 415305 
419764 425962 434560 447951 472249 496943 462097 442339 338491 
164883 90894.8 57551.5 37687.7 29937 24817.8 20724 -4293.18 -4189.46 
-3989.47 -3602.59 -2914.95 -1891.96 -1134.2 -3364.58 -9627.11 -8406.96 -4311.2 
613.547 7386.41 6875.15 8017.19 9216.58 10044.5 10759.8 11299.7 11606.3 
11650.5 11417.6 10914.2 10124.2 9026.29 7345.61 3751.58 -6131.47 -20748.8 
-13107.3 2645.78 1313.23 -4706.91 -12952.7 -23672.7 -39605 -66745.5 -140307 
-513568 -2.29541e+06 -3.57996e+06 3.17367e+06 6.54071e+06 2.1213e+06 631797 309765 123854 
59334 170480 294741 356344 382301 395963 403454 408108 411337 
414088 417111 421094 426537 434050 445733 465253 501620 612661 
446531 81286.3 37472.5 75755.6 57533.9 40162.2 32117.7 26428.8 21896.1 
-4132.59 -3980.9 -3748.75 -3390.17 -2887.99 -2365.84 -2490.72 -4547.39 -8435.81 
-8801.52 -8748.78 -658.568 7923.88 5712.33 7873.65 9407.41 10140.8 10756.8 
11194 11401.8 11349.1 11011.6 10377.8 9399.77 7987.99 5730.44 1101.32 
-10498.1 -18124 -6398.29 1113.24 -2843.42 -7767.03 -15408.8 -25585.5 -38059.7 
-46391.4 -23568 -47927.3 -996589 -2.69257e+06 1.09148e+06 3.8928e+06 1.43356e+06 549036 
308423 120210 26248.6 143193 293816 365593 391049 402649 408325 
411603 413912 416074 418630 422027 426550 432501 441299 454081 
476726 575031 344441 -10111.9 24380.7 76278.3 59715.2 42869.9 34294.8 
27675 22823 -4000.44 -3822.15 -3581.18 -3273.47 -2947.2 -2836.92 -3408.53 
-5404.12 -8688.46 -11262.7 -19539 -19693.1 -9345.93 -407.988 7599.25 9646.59 
10192.8 10726.7 11085.1 11210.6 11072.1 10638.4 9882.97 8731.59 7048.38 
4374.12 -1827.89 -19107.8 -20201.2 -367.593 -19.8632 -7154.61 -10456.2 -17207.8 
-27708.8 -38954.8 -34799.9 90566.3 658650 2.69379e+06 1.61198e+06 -2.52428e+06 -2.10079e+06 
123866 332788 287662 140171 49258 144633 302398 378239 400936 
409638 413208 415010 416346 417861 419890 422646 426108 430307 
435439 440100 424170 415052 255775 104358 111187 91385.1 63783.9 
44695.1 35611.6 28763 23459.3 -3903.39 -3706.55 -3471.84 -3217.23 -3044.29 
-3201.63 -4090.71 -6047.95 -9171.78 -13392.2 -25445.6 -35285.4 -23638.8 641.913 
11178.6 9940.11 10166.3 10656.6 10970.8 11033.7 10823.6 10307.2 9446.61 
8150.04 6264.4 3380.12 -3194.02 -21450.2 -23563 -5993.57 -3033.55 -12568.5 
-12689.7 -18118.6 -30955.2 -46018.1 -49737.4 93183.9 1.00975e+06 6.37756e+06 7.28131e+06 
-4.71853e+06 -7.43198e+06 -776547 229682 287302 178269 98857.4 172172 322598 
393461 411273 416555 417856 418166 418541 419413 420915 423036 
425480 427804 429238 427962 387252 317844 247084 232589 184760 
106100 67107.2 45977.7 35908.4 29205.9 23824 -3833.5 -3631.27 -3405.3 
-3196.89 -3133 -3471.11 -4535.38 -6528.92 -9561.27 -13905.5 -22053.2 -22985.9 
6094.84 30109.7 18682.9 9264.82 9907.78 10534.8 10853.1 10873.9 10608.5 
10026.8 9084.23 7679.92 5655.23 2624.21 -3455.24 -15529.9 -30517.4 -37388 
-17049.5 -21020.1 -14197.4 -17585.2 -35303.7 -61217.6 -98558.9 -99537.9 222842 
3.44747e+06 6.04166e+06 -1.25374e+06 -4.462e+06 -224546 348158 328035 217020 152105 
217765 348067 408549 421152 422914 421996 420909 420408 420700 
421732 423299 424863 425486 423248 412408 368903 283647 284358 
296535 200709 98162.4 61338.5 44567.7 35229.9 29349.2 23319.2 -3797.16 
-3590.51 -3371.2 -3194.95 -3198.85 -3625.5 -4777.76 -6849.45 -9827.57 -13726.6 
-17763.2 -8582.33 40614.5 55085.8 16505.9 6027.19 9356.71 10383.4 10740.4 
10734.8 10431.1 9804.47 8807.66 7338.06 5245.35 2219.5 -2981.94 -11019.8 
-32324 -55621.6 -31133 -33706 -13902.6 -15045.3 -39745.5 -77098.5 -154903 
-375790 -1.27587e+06 -5.79072e+06 -2.17181e+06 6.96601e+06 5.55032e+06 1.31805e+06 603261 383568 
252320 197980 253962 364855 420908 429474 428171 425339 423080 
421863 421690 422359 423521 424460 423827 419114 403132 359476 
248852 184697 168399 124564 65498.9 50194.8 41158.7 34103.2 28887.4 
21364 -3787.89 -3582.44 -3365.65 -3199.24 -3222.03 -3675.58 -4860.24 -6980.48 
-9951.77 -13559.5 -16452.8 -5363.89 45919.6 57206.4 14477.8 4955.96 9191.43 
10285.7 10645.2 10620.7 10295.1 9645.25 8624.09 7133.56 5035.38 2063.02 
-2872.87 -9767.84 -26584.2 -46068.4 -27931.2 -37293.5 -14209.1 -15392.7 -41967.2 
-82417.7 -174653 -478618 -1.86232e+06 -9.53921e+06 -5.31215e+06 1.05428e+07 9.53704e+06 1.96893e+06 
712094 405098 271108 220724 265706 367942 426981 435224 431870 
427639 424550 422842 422360 422808 423766 424422 423232 417564 
400919 362785 256095 37243 -124428 -50455.8 11794.7 36060.5 37274.9 
32512.8 27567 18761.5 -3809.86 -3605.07 -3387.59 -3206.19 -3200.1 -3617.92 
-4777.55 -6910.57 -9927.12 -13694.2 -18806 -14674.2 25522 46476.1 19362.5 
8242.25 9563.91 10287.5 10572 10533.7 10202.4 9551.09 8535.27 7065.99 
5017.81 2144.61 -2426.02 -9797.01 -27335.6 -46008.2 -26475.5 -31828.8 -16255.3 
-20141.6 -42456.4 -76888.3 -143683 -310793 -867756 -3.0921e+06 490363 5.22695e+06 
2.7052e+06 854183 528201 367193 265504 217933 258167 354338 424349 
437596 433622 428694 425224 423299 422690 423079 424057 424846 
423882 418525 403782 380029 374527 95137.5 -326666 -260860 -34660.6 
25634.4 34018.3 30699 25420.8 17629.9 -3857.42 -3661.32 -3438.49 -3223.69 
-3134.44 -3447.76 -4526.37 -6655.55 -9762.75 -13549.4 -23032.9 -32001.5 -14823.6 
13086.7 14988.8 9645.73 9861.63 10284.2 10511.8 10473.2 10153.3 9520.99 
8537.71 7128.15 5179.15 2445.83 -2057.57 -11891.3 -27946.1 -37317.7 -20975.7 
-26634.9 -18078.3 -23356 -40794.4 -64379 -87223.3 -42827.6 524648 4.93705e+06 
7.55945e+06 -2.2583e+06 -6.4901e+06 -639092 262890 306476 244941 193064 229965 
331979 415964 436489 433184 428405 425062 423220 422671 423162 
424386 425687 425624 421560 408918 389083 415725 124692 -404604 
-330938 -40041.2 24857.7 32967.7 28249.7 24492.2 21752.3 -3938.52 -3753.09 
-3525.06 -3261.68 -3052.33 -3153.74 -4026.99 -6272.72 -9525.82 -12095.7 -20499.3 
-27964.2 -23177.6 -6080.58 7421.99 9321.86 9814.4 10230 10456.3 10437.8 
10146.3 9551.12 8623.22 7305.62 5505.29 2997.31 -1451.41 -13845.4 -27647.9 
-15481 -8514.5 -20252.7 -17931.6 -23883.6 -38040.9 -52984.9 -47535.3 91152.8 
949652 5.70157e+06 6.52816e+06 -4.21875e+06 -6.93598e+06 -718414 219314 295186 225060 
150162 180384 294260 402979 432283 430415 426780 424089 422622 
422300 423028 424686 426836 428308 426733 416071 381739 260859 
-68071.6 -325733 -144027 9284.88 34640.8 35288.8 28806.5 23857.1 22304.1 
-4046.77 -3886.36 -3659.06 -3342.14 -2967.54 -2740.37 -3308.55 -5686.35 -9535.79 
-9679.36 -9889.94 -3636.32 1669.89 1672.89 6969.3 8961.81 9654.99 10138.3 
10404.7 10427.8 10179.7 9635.98 8780.21 7578.22 5963.56 3718.9 -344.35 
-10902.8 -21282.1 -7644.09 -3868.75 -13818.6 -15927.3 -22862 -35433.3 -47790.8 
-44031.3 37392.2 398509 1.19931e+06 -398549 -1.48532e+06 8000.26 607812 399156 
318617 206552 106732 139192 258608 386151 424351 425622 423972 
422397 421554 421584 422630 424847 428126 431772 434116 429586 
393293 215087 110609 155588 164144 87065.2 52801.2 39401.9 30398.2 