# vtk DataFile Version 4.2
vtk output
ASCII
DATASET RECTILINEAR_GRID
FIELD FieldData 6
base_index 1 3 int
0 56 0 
avtOriginalBounds 1 6 double
0 20 17.5 20 0 0 
MeshName 1 1 string
amr_mesh

CYCLE 1 1 int
3840 
TIME 1 1 double
5.6071248116e-05 
VisItExpressions 1 0 string

DIMENSIONS 33 9 1
X_COORDINATES 33 float
0 0.625 1.25 1.875 2.5 3.125 3.75 4.375 5 
5.625 6.25 6.875 7.5 8.125 8.75 9.375 10 10.625 
11.25 11.875 12.5 13.125 13.75 14.375 15 15.625 16.25 
16.875 17.5 18.125 18.75 19.375 20 
Y_COORDINATES 9 float
17.5 17.8125 18.125 18.4375 18.75 19.0625 19.375 19.6875 20 

Z_COORDINATES 1 float
0 
CELL_DATA 256
SCALARS P float
LOOKUP_TABLE default
180.338 184.445 188.002 191.077 193.462 195.303 196.319 196.133 194.515 
192.081 188.695 183.575 176.72 169.164 161.005 152.21 142.987 134.458 
126.802 120.092 114.494 110.245 107.413 105.623 104.937 105.357 106.941 
109.681 113.502 117.255 120.352 121.785 159.64 162.586 165.735 168.501 
170.637 172.276 173.09 172.955 171.627 169.535 166.487 162.026 156.18 
149.563 142.37 134.596 126.587 119.003 112.159 106.111 101.086 97.1903 
94.4929 92.754 92.0154 92.2827 93.6278 96.0943 99.4713 102.933 105.696 
107.026 137.681 139.796 142.492 144.895 146.732 148.109 148.725 148.591 
147.489 145.714 143.079 139.294 134.401 128.771 122.617 115.956 109.161 
102.625 96.6881 91.4151 87.04 83.59 81.1301 79.5166 78.783 78.931 
80.0452 82.1987 85.1362 88.2094 90.64 91.8513 114.488 116.044 118.241 
120.236 121.753 122.853 123.294 123.154 122.257 120.796 118.607 115.505 
111.534 106.913 101.833 96.3381 90.7607 85.3378 80.3789 75.9659 72.3046 
69.377 67.2431 65.8272 65.1546 65.2214 66.1183 67.9283 70.4041 73.0176 
75.0826 76.1285 89.9754 91.1104 92.6796 94.2156 95.4411 96.295 96.669 
96.5654 95.9201 94.7752 93.0443 90.633 87.5645 83.9666 79.9732 75.6886 
71.3247 67.0784 63.1558 59.6762 56.7581 54.4211 52.6878 51.5346 50.9681 
51.0018 51.7083 53.1265 55.0599 57.0943 58.7311 59.5467 64.8489 65.5664 
66.6429 67.7271 68.6068 69.208 69.4736 69.3961 68.944 68.1203 66.8731 
65.1496 62.9637 60.3906 57.5249 54.4584 51.3321 48.2831 45.4548 42.9463 
40.833 39.1336 37.8615 37.0121 36.5868 36.6013 37.1122 38.1377 39.5292 
40.9903 42.1647 42.7653 39.1007 39.4922 40.1087 40.7475 41.2756 41.6371 
41.8012 41.7575 41.4913 40.9955 40.2429 39.2078 37.8978 36.3537 34.6308 
32.7899 30.9115 29.0789 27.3753 25.8631 24.5846 23.5548 22.7812 22.2634 
22.0023 22.0111 22.3218 22.9378 23.7684 24.6376 25.3368 25.702 13.0607 
13.1843 13.3848 13.5951 13.7705 13.8907 13.9457 13.9312 13.8428 13.6771 
13.4255 13.0803 12.644 12.1296 11.5554 10.9422 10.3165 9.70593 9.13786 
8.63333 8.20619 7.86191 7.60291 7.42941 7.34194 7.34525 7.44945 7.65426 
7.92934 8.21658 8.44767 8.56978 
FIELD FieldData 1
avtGhostZones 1 256 unsigned_char
0 0 0 0 0 0 0 0 0 
0 0 0 0 0 0 0 0 0 
0 0 0 0 0 0 0 0 0 
0 0 0 0 0 0 0 0 0 
0 0 0 0 0 0 0 0 0 
0 0 0 0 0 0 0 0 0 
0 0 0 0 0 0 0 0 0 
0 0 0 0 0 0 0 0 0 
0 0 0 0 0 0 0 0 0 
0 0 0 0 0 0 0 0 0 
0 0 0 0 0 0 0 0 0 
0 0 0 0 0 0 0 0 0 
0 0 0 0 0 0 0 0 0 
0 0 0 0 0 0 0 0 0 
0 0 8 8 8 8 8 8 8 
8 8 8 8 8 8 8 8 8 
8 8 8 8 8 8 8 8 8 
8 8 8 8 8 8 8 8 8 
8 8 8 8 8 8 8 8 8 
8 8 8 8 8 8 8 8 8 
8 8 8 8 8 8 8 8 8 
8 8 8 8 8 8 8 8 8 
8 8 8 8 8 8 8 8 8 
8 8 8 8 8 8 8 8 8 
8 8 8 8 8 8 8 8 8 
8 8 8 8 8 8 8 8 8 
8 8 8 8 8 8 8 8 8 
8 8 8 8 8 8 8 8 8 
8 8 8 8 
