# vtk DataFile Version 4.2
vtk output
ASCII
DATASET RECTILINEAR_GRID
FIELD FieldData 6
base_index 1 3 int
0 56 0 
avtOriginalBounds 1 6 double
0 20 17.5 20 0 0 
MeshName 1 1 string
amr_mesh

CYCLE 1 1 int
7680 
TIME 1 1 double
0.00011096455649 
VisItExpressions 1 0 string

DIMENSIONS 33 9 1
X_COORDINATES 33 float
0 0.625 1.25 1.875 2.5 3.125 3.75 4.375 5 
5.625 6.25 6.875 7.5 8.125 8.75 9.375 10 10.625 
11.25 11.875 12.5 13.125 13.75 14.375 15 15.625 16.25 
16.875 17.5 18.125 18.75 19.375 20 
Y_COORDINATES 9 float
17.5 17.8125 18.125 18.4375 18.75 19.0625 19.375 19.6875 20 

Z_COORDINATES 1 float
0 
CELL_DATA 256
SCALARS P float
LOOKUP_TABLE default
1399.33 1397.81 1397.08 1390.77 1376.24 1354.86 1327.16 1294.75 1258.3 
1221.33 1184.13 1146.48 1108.89 1073.47 1040.59 1009.72 981.264 955.733 
933.31 913.052 895.074 879.149 865.265 852.638 841.385 832.473 826.094 
823.279 823.915 825.899 827.184 824.433 1219.55 1217.7 1217.16 1212.17 
1200.11 1181.74 1157.85 1129.71 1098.54 1066.44 1034.04 1001.23 968.752 
937.804 908.933 881.804 856.898 834.439 814.593 796.761 780.982 767.036 
754.81 743.788 734.141 726.524 721.358 719.468 720.559 722.948 724.316 
723.035 1037.07 1035.72 1035.14 1031.14 1021.24 1005.8 985.614 961.82 
935.672 908.504 880.946 853.088 825.635 799.284 774.568 751.364 730.117 
710.872 693.775 678.489 665.008 653.096 642.608 633.229 625.128 618.764 
614.644 613.472 614.858 617.374 618.998 618.69 852.29 851.159 850.633 
847.505 839.588 827.025 810.519 791.091 769.832 747.595 724.944 702.109 
679.658 657.989 637.568 618.433 600.937 585.026 570.832 558.203 547.098 
537.279 528.607 520.91 514.326 509.18 505.984 505.332 506.823 509.25 
510.997 511.16 664.841 664.046 663.621 661.139 655.1 645.4 632.609 
617.58 601.12 583.826 566.14 548.362 530.865 513.943 497.914 482.941 
469.21 456.726 445.549 435.638 426.918 419.208 412.389 406.389 401.304 
397.382 395.046 394.669 395.93 397.901 399.489 399.675 475.916 475.425 
475.046 473.248 468.971 462.074 452.971 442.284 430.563 418.215 405.562 
392.864 380.355 368.239 356.736 346.004 336.148 327.18 319.14 312.024 
305.76 300.22 295.32 291.031 287.414 284.65 283.062 282.88 283.854 
285.329 286.53 286.838 285.837 285.579 285.306 284.196 281.635 277.518 
272.084 265.699 258.685 251.284 243.695 236.078 228.57 221.293 214.379 
207.927 201.994 196.597 191.756 187.471 183.696 180.359 177.409 174.834 
172.673 171.039 170.12 170.031 170.618 171.499 172.224 172.473 95.3075 
95.2276 95.1245 94.7457 93.8918 92.524 90.7191 88.5964 86.2627 83.7988 
81.2707 78.7333 76.2317 73.8068 71.5016 69.3501 67.371 65.5704 63.9551 
62.5249 61.2643 60.15 59.1656 58.3075 57.5892 57.0488 56.7475 56.7192 
56.9127 57.2024 57.4421 57.5346 
FIELD FieldData 1
avtGhostZones 1 256 unsigned_char
0 0 0 0 0 0 0 0 0 
0 0 0 0 0 0 0 0 0 
0 0 0 0 0 0 0 0 0 
0 0 0 0 0 0 0 0 0 
0 0 0 0 0 0 0 0 0 
0 0 0 0 0 0 0 0 0 
0 0 0 0 0 0 0 0 0 
0 0 0 0 0 0 0 0 0 
0 0 0 0 0 0 0 0 0 
0 0 0 0 0 0 0 0 0 
0 0 0 0 0 0 0 0 0 
0 0 0 0 0 0 0 0 0 
0 0 0 0 0 0 0 0 0 
0 0 0 0 0 0 0 0 0 
0 0 8 8 8 8 8 8 8 
8 8 8 8 8 8 8 8 8 
8 8 8 8 8 8 8 8 8 
8 8 8 8 8 8 8 8 8 
8 8 8 8 8 8 8 8 8 
8 8 8 8 8 8 8 8 8 
8 8 8 8 8 8 8 8 8 
8 8 8 8 8 8 8 8 8 
8 8 8 8 8 8 8 8 8 
8 8 8 8 8 8 8 8 8 
8 8 8 8 8 8 8 8 8 
8 8 8 8 8 8 8 8 8 
8 8 8 8 8 8 8 8 8 
8 8 8 8 8 8 8 8 8 
8 8 8 8 
