# vtk DataFile Version 4.2
vtk output
ASCII
DATASET RECTILINEAR_GRID
FIELD FieldData 6
base_index 1 3 int
6 10 0 
avtOriginalBounds 1 6 double
0.46875 5.78125 0.390625 3.59375 0 0 
MeshName 1 1 string
amr_mesh

CYCLE 1 1 int
7680 
TIME 1 1 double
0.00011096455649 
VisItExpressions 1 0 string

DIMENSIONS 69 83 1
X_COORDINATES 69 float
0.46875 0.546875 0.625 0.703125 0.78125 0.859375 0.9375 1.01562 1.09375 
1.17188 1.25 1.32812 1.40625 1.48438 1.5625 1.64062 1.71875 1.79688 
1.875 1.95312 2.03125 2.10938 2.1875 2.26562 2.34375 2.42188 2.5 
2.57812 2.65625 2.73438 2.8125 2.89062 2.96875 3.04688 3.125 3.20312 
3.28125 3.35938 3.4375 3.51562 3.59375 3.67188 3.75 3.82812 3.90625 
3.98438 4.0625 4.14062 4.21875 4.29688 4.375 4.45312 4.53125 4.60938 
4.6875 4.76562 4.84375 4.92188 5 5.07812 5.15625 5.23438 5.3125 
5.39062 5.46875 5.54688 5.625 5.70312 5.78125 
Y_COORDINATES 83 float
0.390625 0.429688 0.46875 0.507812 0.546875 0.585938 0.625 0.664062 0.703125 
0.742188 0.78125 0.820312 0.859375 0.898438 0.9375 0.976562 1.01562 1.05469 
1.09375 1.13281 1.17188 1.21094 1.25 1.28906 1.32812 1.36719 1.40625 
1.44531 1.48438 1.52344 1.5625 1.60156 1.64062 1.67969 1.71875 1.75781 
1.79688 1.83594 1.875 1.91406 1.95312 1.99219 2.03125 2.07031 2.10938 
2.14844 2.1875 2.22656 2.26562 2.30469 2.34375 2.38281 2.42188 2.46094 
2.5 2.53906 2.57812 2.61719 2.65625 2.69531 2.73438 2.77344 2.8125 
2.85156 2.89062 2.92969 2.96875 3.00781 3.04688 3.08594 3.125 3.16406 
3.20312 3.24219 3.28125 3.32031 3.35938 3.39844 3.4375 3.47656 3.51562 
3.55469 3.59375 
Z_COORDINATES 1 float
0 
CELL_DATA 5576
SCALARS P float
LOOKUP_TABLE default
-1557.1 -1559.07 -1567.31 -1582.25 -1612.38 -1668.03 -1759.99 -1910.61 -2137.07 
-2478.17 -2958.81 -3607.99 -4449.39 -5395.27 -6396.14 -7104.53 -7342.58 -6817 
-5522.12 -3638.63 -1343.48 1038.2 3398.73 5605.28 7656.15 9570.07 11376.2 
13138.8 14877.3 16623.4 18386 20172.7 22019.7 23899.1 25822.6 27476.6 
28833.8 29588.1 29381.9 28381.9 26262.5 23290.3 19843.3 17050.1 14832.4 
12656.7 10178.9 7453.45 5015.43 3857.5 3371.14 2104.49 -325.883 -3771.31 
-7649.97 -12134.9 -16484.9 -19838.9 -21866.3 -22500 -22027.1 -20887.1 -19224.4 
-17391.1 -15498 -13768 -12226.6 -10907.5 -1711.85 -1713.67 -1719.05 -1730.9 
-1755.71 -1804.19 -1888.92 -2030.87 -2254.76 -2600.18 -3109.2 -3827.95 -4792.27 
-5959.97 -7221.57 -8229.54 -8627.11 -8080.96 -6567.05 -4318.14 -1642.83 1109.3 
3758.29 6191.62 8411.08 10460.9 12397.3 14285.4 16163 18054.7 19974.2 
21932.3 23976 26110.1 28312.5 30340.6 31995.3 32893.6 32757.1 31666.8 
29327.3 25659.9 21287.9 18006.3 15627.6 13571.2 10911.9 7628.91 4757 
3733.61 3954.95 3116.87 348.701 -3927.23 -8585.39 -13610.3 -18874.8 -23304.1 
-25279.8 -25620.4 -24788.8 -23268.1 -21248.3 -19034.2 -16838.8 -14861.4 -13154 
-11717.9 -1868.91 -1869.61 -1872.45 -1879.56 -1897.61 -1935.9 -2008.6 -2135.66 
-2347.05 -2686.39 -3211.49 -3990.91 -5088.69 -6505.15 -8114.51 -9512.37 -10153.8 
-9595.79 -7809.47 -5119.47 -1982.79 1184.02 4144.11 6799.06 9171.52 11337.3 
13384 15387.4 17394.9 19426.8 21496.3 23617.4 25855.3 28252.7 30795.1 
33221.9 35224.2 36330.6 36254.3 35239.7 32673.6 28142.2 22531.4 18432.3 
15972.9 14416.8 11607.6 7536.27 3920.45 3298.3 4768.34 4551.93 1317.19 
-4135.95 -9613.31 -15412.3 -22101.7 -27912.7 -29498.2 -29137.2 -27773.6 -25780.6 
-23313.9 -20659.7 -18111.4 -15874.2 -14000 -12457.9 -2027.91 -2027.58 -2027.46 
-2029.17 -2038.56 -2064.1 -2119.89 -2225.58 -2413.65 -2732.99 -3257.01 -4081.61 
-5312.71 -7010.23 -9068.64 -10995.7 -11994.5 -11436.4 -9297.35 -6057.04 -2357.07 
1279.07 4571.16 7437.47 9938.17 12192.6 14326.6 16431.4 18559.4 20724.2 
22934.2 25203.6 27620.1 30289.6 33228.9 36120.4 38532.2 39876.7 39819.1 
39101.2 36493.3 30885.5 23689.3 18497.5 16093.4 15448.1 12337.8 7098.87 
2274.74 2271.16 5914.12 6714.11 2712.45 -4510.65 -11025.1 -17718.7 -26811.8 
-34149.5 -34425.5 -33001.6 -30955 -28412.6 -25419.8 -22247.5 -19294 -16784.7 
-14750.1 -13117.6 -2189.38 -2188.07 -2184.94 -2180.64 -2179.98 -2190.32 -2224.95 
-2302.44 -2455.71 -2738.02 -3237.88 -4082.78 -5433.45 -7439.03 -10070.3 -12730.5 
-14249.7 -13703 -11092.1 -7144.25 -2752.71 1420.37 5061.84 8121.36 10715.4 
13023 15217.7 17408.3 19647.9 21938.1 24276.6 26673 29237.7 32177.5 
35579.2 39032.4 41892.5 43400.5 43291.3 43141.2 41072.9 33997.5 24325.6 
18106.9 16995.3 17215.1 13256.4 6524.49 -556.4 7.54121 7465.48 10273.5 
4943.4 -5545.26 -13244 -20903.7 -32952.1 -40834.9 -38956.7 -36912.7 -34299.9 
-31174 -27569.3 -23774.5 -20356.6 -17567.1 -15387.8 -13687.6 -2353.36 -2351.6 
-2345.66 -2335.17 -2323.59 -2316.9 -2326.8 -2369.73 -2476.76 -2702.76 -3149.01 
-3977.24 -5412.89 -7734.51 -11090.1 -14783.3 -17065 -16536.9 -13271.3 -8393.25 
-3144.28 1645.85 5647.94 8868.54 11505.9 13820.5 16044.3 18305.3 20650.2 
23062 25521.1 28014.7 30693 33872.8 37816.1 41988.1 45268.8 46701.8 
46290.5 47471.8 47008.2 37583.8 23455.6 16563.5 18320 19833.7 14036.3 
6089.15 -3044.66 -3738.11 8006.43 16079.9 9221.98 -8076.09 -18295.5 -26144.1 
-39251.6 -45163.6 -42361.5 -40551.8 -37706.7 -34068.9 -29777.6 -25208.7 -21259.2 
-18191.9 -15896.5 -14159.8 -2520.33 -2518.7 -2510.61 -2494.25 -2471.53 -2446.74 
-2429.51 -2432.85 -2483.19 -2632.61 -2990.7 -3752.73 -5208.17 -7809.84 -12068.2 
-17245.2 -20659.6 -20139.7 -15932.6 -9808.57 -3487.73 2009.65 6371.2 9699.71 
12310 14572.2 16790.3 19108.7 21558.1 24098.2 26686.3 29260 31965.6 
35312.7 39895.9 45071 48731.8 49942.7 49929 53570.4 55228.1 42117.3 
21069.1 12863.7 18692.2 23118.9 14004.9 5161.04 -2451.26 -7183.77 8074.47 
24152.8 15894.6 -12333.7 -28300 -34336.5 -44986.1 -48210.1 -45411.3 -44453.7 
-41120.9 -37120 -32091.1 -26504.5 -21946.1 -18623 -16258.4 -14527.7 -2690.19 
-2689.96 -2680.8 -2659.5 -2626.19 -2583.29 -2538.08 -2499.16 -2485.44 -2539.78 
-2772.91 -3411.07 -4781 -7534.9 -12890.5 -20251.6 -25385.9 -24818.1 -19201.1 
-11378.7 -3713.13 2585.34 7284.79 10638.1 13123.3 15257.5 17432 19801.5 
22364.7 25051.9 27798.3 30426.6 33033.3 36331.7 41672.4 48426.8 52572.5 
53086.8 55027.2 62776.9 66530.4 49155.1 18607 5420.08 15720 25000 
8135.26 868.506 4338.15 6213.98 18142.5 19645.7 10985 -22970.9 -46659.6 
-45902 -50233.2 -51043.8 -48834 -49388.9 -44574.4 -40413.5 -34611.3 -27588.3 
-22339.2 -18820 -16458.2 -14789.2 -2863.63 -2865.87 -2857.33 -2832.74 -2790.33 
-2730.6 -2658.8 -2579.21 -2499.97 -2445.62 -2519.65 -2983.05 -4118.86 -6705.71 
-13319.6 -23990.8 -31814 -31049.5 -23248 -13065.5 -3713.23 3472.16 8456.2 
11712.3 13934.6 15841.7 17935.2 20365 23061.4 25927.4 28890.8 31554 
33803.3 36588.7 42773.1 52196.7 57350 55875.2 58234.3 70404.8 74087.4 
54813.8 23760.5 7731.77 13652.1 16536.5 -6918.8 -10127.6 12557.3 34200.7 
37017.7 1988.79 -1844.32 -22217.6 -69063.4 -62425 -52596.3 -52541 -53851.7 
-55334.4 -47017.6 -44007.6 -37583.9 -28345.4 -22333.8 -18741.9 -16485.1 -14946.9 
-3039.96 -3047 -3041.37 -3016.09 -2967.25 -2893.53 -2799.28 -2686.04 -2547.55 
-2379.55 -2271.42 -2554.8 -3285.43 -4992.4 -12802.1 -28712.3 -40831.3 -39588.4 
-28316.9 -14791.9 -3330.48 4801.06 9973.41 12959 14724 16281.7 18262.4 
20788.7 23647.8 26723.5 30007 32706.3 34236 35545.4 42089.7 56563.6 
63653 58377.1 56656.4 73446 81384 74618.1 74484 47233.9 16910.7 
-1303.22 -19927.4 -13209.4 14553.2 48456.3 52147.6 7273.3 -5674.56 -12779.7 
-87162 -70530.8 -53486.3 -53377.5 -59650.2 -59665.4 -46652.1 -48278.3 -41417.3 
-28586.2 -21797.6 -18361.7 -16345 -15012.3 -3219.9 -3233.83 -3234.25 -3211.99 
-3160.69 -3077.28 -2966.96 -2832.99 -2652.76 -2381.71 -2089.26 -2325.9 -2505.62 
-2033.75 -10519.6 -34716.4 -54122.7 -51622.9 -34826.9 -16400.3 -2330.55 6748.69 
11952.8 14424.2 15459.6 16521.8 18377.5 21066.7 24126.2 27416 31218.4 
34066.2 34434.2 32502.1 37179.8 61069.8 72426.2 60602.8 52241.2 74427.5 
90337.3 98672.5 122380 77792.6 19432.5 -13600.6 -32194.2 -20406.7 15244.2 
56604 66175.4 27624.2 -5349.4 -32519 -97311.1 -74505.9 -49130.3 -53397.2 
-64213 -63970.7 -48389.2 -54657.8 -45917.9 -27771.4 -20665.7 -17674.1 -16057.4 
-15003.5 -3402.67 -3426.85 -3437.29 -3423.01 -3374.65 -3286.9 -3168.26 -3033.37 
-2847.41 -2495.08 -2044.78 -2754.7 -3108.83 2874.7 -3368.25 -38835.6 -71699.7 
-69039.9 -43958.9 -17536.7 -365.128 9478.15 14536.2 16146.5 16114.9 16455.9 
18225.4 21206.2 24509.6 27925.5 32631.4 36005.8 34652.3 27285.5 26415 
63648 80046.6 69341.3 68060.1 89211 101221 113192 124489 70415.7 
5744.04 -26419.9 -51468.3 -34113.9 18598.5 70151.4 86727.8 46321.4 -14566.7 
-49621.6 -106274 -83270.5 -51490.3 -54749 -71124.4 -72352 -58413.4 -60812.1 
-47277.3 -25055.1 -18842.4 -16728.8 -15665.8 -14951.8 -3588.67 -3626.2 -3651.72 
-3651.89 -3613.57 -3527.74 -3408.04 -3297.99 -3173.52 -2720.66 -2133.53 -4419.5 
-6025.58 7437.53 16696.8 -10721.2 -65546.8 -82087.1 -49219.4 -17489.8 3220.45 
13267.8 17910.2 18159.3 16532.3 15891.1 17721.1 21244.8 24803.3 28058.6 
34304.5 39025.1 35505.7 20102.1 9692.15 63285.3 81982.8 75648.5 84519.2 
101224 111131 124522 131191 76923.2 8969.42 -47576.4 -81523 -54098.7 
26896.6 91619.6 115426 70134 -30364.5 -75028.5 -110856 -87469.3 -58633.1 
-59642 -80844.4 -91583 -72968.9 -60988.3 -41186 -20182.2 -16548.7 -15644.7 
-15241.9 -14901.7 -3776.58 -3831.97 -3878.59 -3901.57 -3883 -3806.5 -3688.75 
-3628.87 -3697.44 -3060.35 -1989.9 -5490.64 -8081.81 4747.96 27188.7 25278.7 
-11181 -43350.9 -38726.6 -13701.5 8706.33 18220.2 22277.3 20514.7 16517.3 
14634.3 16720.4 21259.3 25048.3 27358.7 36204 43674.8 38124.9 16449.3 
1423.94 76062.6 92369.1 81259.5 86040.3 100431 117636 133985 145121 
97381.6 16245.1 -73814.1 -126846 -84675.8 42307.7 123816 145742 96573.1 
-18404.2 -128087 -149352 -98416.8 -64944.2 -63050.5 -94472.4 -117850 -90447.8 
-54869.9 -28819.5 -14477.3 -14197.1 -14633.1 -14877.1 -14899.6 -3966.36 -4043.64 
-4118.68 -4175.4 -4190.19 -4132.88 -4007.63 -3995.54 -4524.3 -3577.91 -589.366 
308.24 -1438.48 3613.1 21020.4 29355.8 22487.3 -6885.96 -26361.4 -8477.12 
12303 24467 27415.2 23150.3 16721.5 12933.3 15065 21472 25392.8 
24534.7 38017.6 50123.8 43430.2 31362.7 30814.5 105286 108037 90917.7 
86780.2 96729.4 126756 144093 177420 136271 28146.6 -108920 -196976 
-125216 72141.7 169825 179710 104760 -63972.4 -204029 -175747 -102294 
-55899.3 -58236.3 -107953 -149026 -108863 -47547.7 -16341.1 -10149.5 -12312.4 
-13867.3 -14664.9 -14995.7 -4155.9 -4260.39 -4372.2 -4476.37 -4544.98 -4525.17 
-4370.68 -4330.83 -5739.07 -5033.79 1440.76 8036.84 6745.82 6687.58 16358.8 
21237.9 16020.8 -5735.37 -27988.9 -9114.71 8224.03 29064.6 34589.2 25848.7 
17312.7 10601.1 12155.9 22270.8 26471.7 16474.6 37592.6 57504.2 48452.5 
45052 50866.8 113982 111523 96791.2 83439.6 86624.1 122937 138341 
235642 194688 50086.9 -140529 -304854 -169543 164338 265395 244964 
135750 -140822 -321042 -243065 -100953 -28135 -42126.4 -111842 -170873 
-122450 -43895.3 -9567.02 -8076.47 -11455.1 -13550 -14689.8 -15230.8 -4344.35 
-4480.46 -4638.41 -4807.39 -4959.63 -5013.72 -4812.18 -4377.84 -6725.42 -8229.64 
-1475.05 7184.71 6785.12 7125.89 12368.2 14499.1 8987.83 -7838.54 -23999.9 
-13668.1 -5037.62 29635.6 40065.3 25087.9 16019.2 4718.79 6044.59 23932.5 
27633.6 3166.06 20188.5 48077.1 45641.4 57519.2 58259.9 99118.8 106664 
100950 79447.6 62448.1 100757 118434 301113 266288 133942 -141474 
-478691 -310359 274687 440414 362013 251651 -177049 -491559 -357192 
-83811.5 21212.7 -12460.6 -97656.3 -167246 -124667 -42962.2 -9864.58 -8782.01 
-11700.3 -13764.6 -14999.1 -15635.2 -4528.82 -4701.39 -4914.83 -5168.83 -5448.01 
-5641.31 -5541.17 -3655.41 -6037.51 -11972.1 -7180.86 2473.73 4365.79 6048.44 
9055.41 9597.2 4488.97 -7090.27 -17001.2 -17354.5 -25060.5 1924.96 26137.4 
18831 10621.9 -6081.77 -6210.31 21637.7 24392.2 -3400.56 -590.174 4999.85 
36785.1 63007 65591.5 73099.9 91874.7 107549 124923 137243 93709.8 
70270.2 391670 379121 252331 63571.8 -478202 -623241 -4259.72 631425 
765629 464810 -252038 -788914 -517609 -25206.4 105847 30457 -72374.7 
-139209 -111002 -43428.2 -14734.1 -11407.2 -12879.8 -14474.6 -15593.3 -16216 
-4707.3 -4919.49 -5196.99 -5556.76 -6017.36 -6498.65 -6873.37 -3850.37 -4917.95 
-13849.4 -10641.9 -585.463 2824.34 4644.89 6333.82 5937.96 1485.94 -6813.39 
-14182.1 -18542.1 -33371.4 -23520.3 3863.56 8197 -14255.5 -24118.4 -37123.6 
-7092.68 4523.58 -3333.38 -7333.72 -11843.8 27380.9 55555.9 58063.1 32010.3 
81399.4 110363 166769 250343 36606.1 -128656 545417 566815 224895 
578456 215189 -522735 -311959 700846 1.11361e+06 496149 -477017 -1.10231e+06 
-630452 122018 243693 77389.5 -53250.5 -109797 -90939.6 -43624.9 -20398.7 
-14755.4 -14613.5 -15569.3 -16444.2 -16973.5 -4876.22 -5130.1 -5477.72 -5962 
-6651.11 -7552.23 -9271.2 -7722.29 -7945.17 -13245.8 -10416.6 -1968.45 1606.04 
3237.42 4082.36 3153.25 -671.811 -6920.21 -12861.8 -17758.9 -26706.6 -21571.5 
-4799.31 -1075.89 -47908.8 -42431.5 -67618.1 -33659.4 -14116.2 -781.468 193.834 
2536.21 26091 48025.1 47059.6 8702.84 71998.2 105784 149017 360633 
-69084.7 -560903 710930 1.02534e+06 134451 652558 725088 -77249.6 -141732 
594097 937098 347555 -309880 -697500 -257374 508011 448934 111588 
-53347.5 -101760 -83345.9 -46257.7 -25211.6 -17948.3 -16561.2 -16909.9 -17503.2 
-17886.5 -5032.66 -5327.59 -5747.59 -6368.62 -7319.55 -8723.58 -12682.7 -12017 
-10120.1 -10990.9 -7887.65 -2331.21 654.565 1974.99 2249.33 994.87 -2337.77 
-7268.67 -12174 -16507.3 -21267.1 -17761.5 -6938 -8125.07 -37625.8 -32804.9 
-55840.3 -29486.8 -13109.6 -2964.56 864.948 9035.81 24650.8 40814.6 37681.7 
8202.72 77965.8 98957.5 86198.2 597093 -97079.5 -1.30735e+06 446741 1.46997e+06 
400899 443244 569812 143302 92187.3 479952 657124 318278 95203.5 
11116.7 392207 882543 555578 98099 -82454.9 -117659 -87117.9 -49507.1 
-28464.2 -20519.3 -18478.2 -18390 -18723.6 -18937.5 -5173.28 -5505.79 -5995.54 
-6750.69 -7960.94 -10263.8 -18110.7 -20406.6 -11970 -8989.42 -5991.54 -2204.27 
42.289 924.132 752.106 -715.565 -3694.85 -7753.78 -11850.4 -15438 -18239.7 
-16071.4 -10476 -11398.1 -21043.1 -18670.9 -34739 -25436.4 -14498.3 -6377.23 
-1077.81 7672.52 19406.8 30395.4 29142.8 24030 106035 103436 -111730 
1.15273e+06 421874 -1.50858e+06 210555 1.34896e+06 667078 477044 469862 246221 
215308 418223 508990 329817 192168 187801 308490 280041 133363 
12388.6 -147339 -154038 -95886.2 -50799.6 -29487.7 -22121.1 -20176.3 -19930.7 
-20067.5 -20103.5 -5294.54 -5658.62 -6208.23 -7082.86 -8536.6 -11732.3 -22381 
-32051.3 -13239 -7220.24 -4529.67 -1789.91 -291.662 92.3275 -471.428 -2111.51 
-4867.66 -8348.85 -11833.3 -14814.3 -16778.7 -15802.7 -13219.7 -14296.7 -18843.2 
-19150.7 -27123.4 -24385.7 -16676.5 -9079.27 -3771.49 3313.44 12022.8 17257.4 
16719 43987.1 160975 146201 -673571 2.05117e+06 1.85057e+06 -1.47213e+06 -48676.4 
894241 619094 474527 426222 300508 280087 384220 428345 326492 
226389 175525 -35511 -347881 -119085 -9872.87 -263720 -208668 -103015 
-47432.3 -27821.8 -22652.1 -21618.1 -21507.8 -21515.1 -21377.3 -5393.98 -5780.44 
-6373.75 -7344.13 -9034.45 -12819.7 -23053.8 -33420.9 -16276.6 -7123.92 -3284.29 
-1160.88 -403.972 -542.655 -1469.35 -3283.8 -5933.67 -9048.57 -12090 -14643.7 
-16291.4 -16208.6 -15403.4 -16646 -19483 -21064.4 -25492.9 -24596.2 -18823.5 
-11601.9 -6772.43 -2247.01 3632.9 1338.83 -5719.32 43202.1 282299 426643 
-2.48861e+06 392611 1.99413e+06 -2.06811e+06 -649405 488886 515490 448459 403071 
328929 313685 365153 383897 321693 249083 187576 32919.4 -68517.8 
273586 85545.2 -412177 -276360 -98329.6 -36394.2 -23143.4 -22360.1 -22947.2 
-23161.4 -23066 -22738.1 -5470.22 -5866.96 -6480.16 -7498.14 -9299.79 -13112.3 
-22924.2 -34490 -23908.6 -8619.09 -1731.57 -230.498 -337.317 -1021.89 -2287.9 
-4298.92 -6952.48 -9863.61 -12600.9 -14869.8 -16428.8 -16984.1 -17249.1 -18683.3 
-20882.5 -22971.4 -26133.7 -25989 -21327.6 -14291.6 -9877.98 -7191.11 -4271.03 
-16671.7 -42835.3 -17763.7 428943 1.59851e+06 -4.35421e+06 -2.3897e+06 3.63302e+06 -335330 
-482268 305218 431092 417848 387618 343060 330778 354187 359345 
319052 267877 222936 164231 244368 665293 365938 -373924 -315758 
-66522.2 -13028 -15755.1 -21862.5 -24448.4 -24977.1 -24730.7 -24191.2 -5522.78 
-5916.47 -6520.92 -7517.77 -9244.37 -12484.3 -18812.7 -35417.5 -27244.3 -7757.85 
1043.21 1081.42 -163.136 -1394.03 -2960.81 -5202.48 -7973.04 -10816.2 -13355 
-15428.6 -16980.4 -17980.9 -18912.2 -20525 -22609.5 -24899.5 -28077.6 -28407.2 
-24463.4 -18127.3 -14168.1 -9351.74 -9391.88 -30794.2 -92668.6 -198844 368899 
5.55444e+06 834160 -1.52527e+06 4.63674e+06 1.69773e+06 96379.8 283257 381086 391816 
376103 349431 339249 347685 345811 318715 284972 261236 260438 
394334 804216 719003 -23918.3 -201713 20070.4 23210.3 -7723.63 -22344.2 
-26529.7 -27043.3 -26517.8 -25715.5 -5553.04 -5930.6 -6498.98 -7406.04 -8912.24 
-11514.7 -14944 -26652.2 -13049 4547.96 5564.65 2661.96 -36.806 -1721.96 
-3505.18 -6022.89 -9042.23 -11940.1 -14350.6 -16266.5 -17818.4 -19122.7 -20494.7 
-22300.4 -24436.8 -27015.7 -30742.7 -32065.2 -28024.1 -22756 -19960.1 -9016.39 
-10251.5 -31140.4 -131394 -556145 -970486 9.07948e+06 6.7088e+06 -4.56249e+06 -940023 
858082 230177 281885 352619 372772 367606 351940 343267 343686 
338260 319590 299543 293479 322822 455423 755802 869318 372004 
99638.7 182894 68855.6 -3599.5 -25414.6 -29582.3 -29397.4 -28397.1 -27298 
-5562.97 -5914.67 -6426 -7192.86 -8288.83 -10156.2 -12068 -10176.5 8243.15 
17225.6 10391.5 4090.96 -213.432 -2068.26 -3907.68 -6769.09 -10211.2 -13285.7 
-15599.6 -17344.2 -18859 -20362.4 -22051.3 -24057.2 -26307.7 -29243.9 -34300.7 
-37197.9 -32547.1 -27017.6 -23356.1 -15287.5 -12816.7 -21603.6 -107730 -926293 
-5.52708e+06 2.11122e+06 5.51436e+06 -4.43772e+06 -3.76485e+06 -36593.4 190499 275445 336285 
360307 361855 352869 345126 341029 333627 320350 310245 316522 
358552 474037 682824 837576 720617 666660 473766 104964 -11835.5 
-32947.8 -33783.4 -31951 -30306 -28889.6 -5557.56 -5875.8 -6320.62 -6939.78 
-7728.95 -8707.89 -8983.17 -3786.33 10403 17578.2 13153.6 4813.33 -1041.2 
-2471.87 -4100.86 -7425.37 -11548.4 -14931 -17129.7 -18632.9 -20040.2 -21661.1 
-23601.5 -25819.6 -28217.6 -31689.1 -38841.3 -44658.5 -38389.7 -30038.2 -21758.1 
-23632.8 -21843.1 -7187.27 65646.8 -392455 -9.18994e+06 -6.58186e+06 8.19349e+06 5.52465e+06 
-1.12742e+06 -55713.2 183486 274906 328922 353525 358785 353537 346110 
338981 329956 319712 316248 330281 375516 469179 608106 726022 
944971 1.22579e+06 743100 74474.1 -43534.3 -45750.9 -38769.3 -34428.4 -32131.1 
-30473.9 -5539.32 -5823.27 -6199.33 -6684.29 -7229.5 -7648.73 -7430.18 -3385.3 
4329.04 12260.2 13225.6 4465.5 -3046.22 -2903.62 -3922.88 -7943.59 -13157.7 
-16995.8 -18987.2 -20108.5 -21306.1 -22977 -25141.6 -27604.8 -30144.6 -34129.3 
-43238.8 -51025.8 -43939.9 -32728.1 -24363.4 -29516.7 -37396.2 -7698.41 396562 
2.23106e+06 -966750 -3.93216e+06 6.17058e+06 7.77078e+06 527752 139321 214268 283061 
328486 351522 358259 354789 346844 337011 325834 316477 316961 
335613 379727 452721 536211 573353 538378 360709 -32635.8 -182369 
-104733 -60707.2 -43192.6 -36383.9 -33745.7 -32076.8 -5515.08 -5764.32 -6077.08 
-6453.01 -6792.21 -6883.08 -6138.77 -3156.26 1311.84 8893.69 12416.4 2270.09 
-7106.15 -3119.96 -3053.88 -8234.64 -15216.6 -19669.3 -21238.8 -21743.7 -22595.6 
-24259.7 -26655.2 -29442.8 -32283.4 -37404.5 -47579.9 -53722.4 -48375.8 -42688 
-29184.4 -34963.3 -65113.6 -87753.4 364621 4.80892e+06 1.17046e+07 -1.22101e+06 -7.24318e+06 
1.37292e+06 423641 218054 247667 296663 333222 353402 360086 356969 
347737 334713 320167 309486 311829 333547 376054 432986 476196 
421989 -13070.2 -1.00487e+06 -1.27317e+06 -538345 -159230 -68999.8 -44799.6 -37364.5 
-35013.7 -33627.6 -5486.33 -5706.47 -5967.37 -6254.82 -6452.06 -6383.16 -5609.37 
-3180.19 701.16 8568.04 12237.7 -4632.08 -15090.8 -2791.61 -936.636 -8168.19 
-18044 -23248.5 -23970.7 -23495.6 -23833.9 -25450.3 -28107.9 -31369.1 -35045.7 
-42793.7 -54775.7 -56540.1 -54320.8 -54690.9 -31723.8 -37475.4 -97662.3 -285830 
-676168 847193 9.54217e+06 -661121 -1.03548e+07 -1.43715e+06 126766 240054 276106 
312936 341513 358315 364020 360267 348948 331758 311822 297141 
299776 324748 367522 415352 438894 367593 13312.3 -666828 -878497 
-424380 -139036 -61274 -41816.3 -37118.8 -35934.5 -35345.4 -5459.2 -5654.38 
-5877.41 -6101.58 -6234.75 -6107.97 -5467.88 -3677.25 -815.581 5197.79 2957.08 
-18737.1 -22928.9 -953.046 3357.99 -7594.79 -22260.3 -28209.6 -27280.9 -25289.8 
-24924.3 -26478.9 -29457.6 -33326.6 -38276.1 -49762.7 -65563 -64614.5 -66659.9 
-69733.7 -36521.7 -33097.9 -99030.1 -434549 -2.11544e+06 -7.83387e+06 1.07559e+06 6.54066e+06 
-963923 -377680 197319 278311 305360 330600 352193 365558 369770 
364700 350523 327666 299167 276870 278610 308915 355880 401993 
423126 383796 262650 303886 228778 -5088.17 -61646.9 -38468.5 -35104.1 
-35985.4 -36715 -36985.6 -5433.66 -5611.76 -5810.21 -6002.9 -6125.23 -6034.45 
-5592.98 -4585.65 -2984.34 -1032.2 -8846.43 -29416.1 -26381.1 5166.65 11803.7 
-6870.97 -29049.3 -35221.3 -31246 -26997.4 -25743.2 -27271.1 -30652.7 -35217 
-41380.4 -54843.1 -73155.5 -72728.6 -75727.2 -78767.7 -45614.7 -21657.1 -34677.4 
-250534 -1.83459e+06 -8.37352e+06 632666 1.13008e+07 4.4726e+06 766387 383155 331900 
334742 349074 364159 374422 377022 370215 352403 321848 280573 
246206 246392 285565 341969 393372 422260 419408 427686 675683 
635232 206783 19654.1 -9310.71 -27070.2 -34810.4 -37517.4 -38605.9 -5414.74 
-5579.45 -5768.76 -5955.56 -6085.97 -6118.98 -5938.37 -5529.83 -5122.53 -5988.41 
-13921.1 -31240.5 -28390.8 6588.65 21170.5 -8101.98 -40339.3 -45156.8 -35910.3 
-28426.8 -26137.7 -27750.6 -31649.5 -36932.1 -43907 -56927.5 -74513.6 -75732.6 
-77899.8 -77733.9 -47995.2 -5043.48 77906.5 268210 435140 -1.48245e+06 1.59878e+06 
6.17257e+06 3.3325e+06 961574 466112 371637 361176 367025 376498 384256 
385414 376672 354595 314453 256398 205444 203096 255142 326880 
389574 430186 455258 520254 742210 761526 386615 113909 18418.4 
-20968.8 -34990.2 -38720.2 -40206.5 -5399.75 -5559.42 -5748.13 -5944.35 -6125.02 
-6273.09 -6344.67 -6445.93 -7002.63 -9220.4 -16065.6 -28727.2 -28691.4 -4546.21 
6447.36 -29470.3 -61015.5 -60963.8 -41569.2 -29334.9 -25932.4 -27845.5 -32423.1 
-38405.5 -45812 -57222.7 -71371.5 -74325.9 -78593.5 -75721.7 -47875.8 -209.857 
162527 786516 2.61528e+06 2.0866e+06 -1.69196e+06 -1.08257e+06 953982 648078 436909 
386119 381782 383261 387998 394271 394429 383670 357125 306881 
230221 158365 151411 220071 311297 388534 440503 480105 563161 
737164 806222 499579 196304 35220.6 -21127.6 -37436 -40785.5 -41956.8 
-5392.58 -5550.65 -5744.99 -5957.67 -6206.84 -6468.11 -6784.67 -7318.15 -8487.92 
-11226.7 -16959.3 -25088.3 -26717.4 -21407.4 -36214.8 -68694.4 -74317.2 -73663.1 
-47918.6 -29590.7 -24825.2 -27495.1 -32963.6 -39621.3 -47292.6 -56809.7 -67101.2 
-71049.1 -73896.3 -69154.8 -50805.2 -25069.5 135841 995253 4.28313e+06 3.5411e+06 
-4.70773e+06 -5.32238e+06 -429329 336991 367087 394014 399512 396578 398167 
404087 403586 390624 360292 301476 207136 112348 100063 187169 
297759 387840 448576 493113 573748 715682 854233 623398 229070 
24909.4 -30651.6 -42833 -43589.4 -43833.9 -5389.54 -5552.75 -5755.53 -5999.77 
-6307.61 -6685.15 -7209.68 -8061.08 -9606.6 -12496 -17345.3 -23256 -26332.3 
-31363.8 -54992.2 -69079.4 -42949.1 -59481 -52676.5 -28728.6 -22431.2 -26685.1 
-33292.3 -40635 -48419.7 -57025.3 -64340.9 -68755.8 -69926 -68204.4 -67375.1 
-81654.7 -44538.7 566440 4.65664e+06 6.00756e+06 -3.21876e+06 -5.86431e+06 -607280 263168 
343606 407215 417204 407473 405375 412604 411921 396627 363909 
300217 193712 80065.8 62576.9 165431 290434 388279 453340 496500 
568163 720880 957901 635228 118268 -26073.3 -50202 -50721 -47276 
-45843 -5394.84 -5562.33 -5777.41 -6054.71 -6417.18 -6898.39 -7588.97 -8664.05 
-10427.7 -13300.7 -17534.7 -22392.7 -26343.7 -31922.1 -43785.5 -38504.1 -5972.98 
-17663.6 -33283.6 -21316.6 -18610.7 -25461.8 -33494.8 -41512.7 -49423.1 -57324.2 
-64037.1 -68742.6 -70838.7 -74368.8 -87889.4 -154657 -357142 -758050 -337357 
4.28167e+06 3.2165e+06 -810621 343584 442596 386008 428637 431752 411815 
408562 419622 418298 400879 367821 303673 194247 72883.5 51554.7 
161519 292688 391570 456284 491562 537824 648177 684910 241930 
-154964 -101628 -71899.7 -58904.8 -51504.5 -47010.1 -5404.3 -5578.85 -5807.35 
-6114.42 -6527.19 -7092.74 -7907.13 -9132.52 -11009.2 -13806.1 -17616.6 -22039.4 
-26233.6 -31118.3 -35933.6 -24679.9 8784.1 30989.1 13304.2 -5169.43 -13699.8 
-24213 -33714 -42334 -50387.4 -58003.4 -64673.5 -69751.7 -72873.1 -79148.6 
-99556.1 -203150 -598075 -2.22377e+06 -9.0194e+06 -1.24629e+06 1.15682e+07 6.65549e+06 1.5797e+06 
691374 474072 447531 435649 407807 407625 425339 423010 401936 
370738 310387 206497 94276.5 73481 179722 304870 398807 458583 
480455 487925 475394 269468 -123686 -262004 -150725 -94399.1 -67134.4 
-54443.6 -48018.4 -5420.18 -5600.11 -5842.37 -6174.17 -6628.19 -7258.72 -8160.99 
-9477.57 -11398.3 -14101.7 -17625.5 -21851.8 -26128.8 -30596.4 -32109 -19119.7 
16259.6 51158 37540.8 7086.92 -9931.46 -23514.2 -34137 -43180.9 -51362.9 
-58922 -65746.3 -71079.4 -74477 -80335 -97057.5 -177539 -485144 -1.91195e+06 
-8.71414e+06 -2.20671e+06 1.10461e+07 7.09389e+06 1.7478e+06 796575 537426 453806 418770 
391274 407089 425719 423358 399581 370941 316047 224289 132706 
120001 216074 325626 410018 461376 469437 441355 314486 -57603.1 
-334625 -293954 -177185 -107838 -73039.9 -56163.3 -48348.9 -5439.21 -5626.18 
-5879.4 -6230.97 -6715.9 -7391.65 -8350.96 -9708.73 -11633.8 -14243.3 -17561.3 
-21600.1 -26140.7 -30937.9 -31857.7 -17914.6 15993.2 44944.6 32987 8101.35 
-9246.84 -23885.5 -34927.4 -44118.1 -52364.6 -60004.3 -67075 -72478.5 -75152.2 
-77833.8 -80196 -82563.9 -65843.2 244662 2.29171e+06 2.32121e+06 283479 -94982.8 
756085 688712 545986 444924 375670 360103 401245 419935 419296 
394483 366526 315685 236842 170328 173681 259135 351596 424433 
465149 464211 419010 249685 -312588 -712693 -497246 -215026 -115226 
-73526.9 -56163.2 -49313.9 -5464.34 -5655.28 -5916.82 -6283.18 -6787.89 -7489.41 
-8480.6 -9837.26 -11745.2 -14257.9 -17384.7 -21235.7 -26230 -32385.7 -35414.3 
-21810.7 13142.5 45068 30956.9 3209.93 -11819.7 -25457.5 -36151.9 -45180.8 
-53370.5 -61190.7 -68656.6 -74003 -75602.4 -74890.1 -64586.8 -5714.49 269129 
1.81696e+06 9.33067e+06 4.47418e+06 -7.73060e+06 -5.19905e+06 -31767.6 565267 528913 429346 
325953 321358 386727 415871 416950 394130 358573 304383 238298 
195830 218562 297732 378638 440067 469817 466650 426608 307504 
-175652 -698396 -566644 -219010 -108286 -68439 -52062.8 -46348.4 -5491.78 
-5688.39 -5954.6 -6329.7 -6844.13 -7554.43 -8537.72 -9892.19 -11748.1 -14169 
-17115.3 -20702.2 -26068.9 -34627 -43109 -30978 3178.02 23734.2 8843.25 
-8085.29 -17236.9 -28173.8 -37780.4 -46338.9 -54347.4 -62361.9 -70534.3 -76130.3 
-76864.5 -73685.1 -59478 489.636 257995 1.37422e+06 5.24514e+06 935455 -5.58403e+06 
-2.78727e+06 296802 593517 522406 413176 287108 283499 370680 414926 
421428 397317 349382 286495 227249 206415 247796 327152 402273 
453912 475540 474442 452296 406815 224662 -191451 -312832 -147223 
-80606.2 -58023.3 -47586.8 -44044.5 -5525.72 -5724.14 -5995.37 -6368.56 -6885.56 
-7588.31 -8549.05 -9864.45 -11638.7 -14006.1 -16754 -19853.9 -25319.2 -37095.8 
-56101.5 -48791.5 -15088.2 -32628 -46045.9 -27080 -24278.8 -31564.4 -39673.2 
-47533.5 -55213.2 -63344.7 -72806 -79416.2 -78942.6 -74833.7 -64310.7 -37495.5 
26121.9 9332.51 -1.84154e+06 -1.6933e+06 2.55032e+06 3.17724e+06 1.25483e+06 695225 529011 
404262 258645 254664 364088 417910 426368 398382 337712 262112 
204262 202216 261286 346060 418938 463291 480904 484105 482920 
475606 400869 186132 39120.7 -31503.6 -44821.7 -46206.6 -43281.7 -41910.7 
-5562.93 -5764.16 -6039.32 -6401.91 -6915.6 -7604.86 -8512.62 -9764.97 -11439.5 
-13749.9 -16407.9 -18647.3 -23323.7 -36158.6 -65744.8 -75456.6 -52827.8 -84487.2 
-77131.3 -39556.6 -30765.2 -35038.6 -41638.2 -48694.3 -55885.7 -64060.1 -75342.9 
-83289.2 -81286.9 -77821.2 -72816.5 -82083.7 -184019 -822668 -4.01693e+06 -557074 
7.7517e+06 6.42194e+06 1.88649e+06 743036 508787 391890 248760 251887 364787 
422939 430405 396162 321562 229260 168399 183941 261654 355049 
428016 467478 483810 492542 514835 595990 775849 704248 338976 
64484.1 -13699.8 -34575.7 -38666.7 -39791.4 -5607.64 -5808.5 -6084.42 -6440.23 
-6937.25 -7601.15 -8457.65 -9596.75 -11097.6 -13436.5 -16221.2 -17350.8 -19931.4 
-22186.2 -30359.6 -54164.6 -72750 -87531.9 -67075.9 -42641.4 -35491.3 -38049.1 
-43498.3 -49762.1 -56261.4 -64127.8 -77619.6 -86307.4 -83083.1 -81727.4 -78334.9 
-103028 -258805 -972436 -3.79706e+06 -305484 7.96686e+06 6.48556e+06 1.60926e+06 633288 
455611 369509 266438 275390 368805 422981 428928 389013 301591 
190497 122296 153706 251752 356001 430168 467493 483819 495060 
531296 712829 1.20882e+06 1.15284e+06 479400 100326 2788.36 -26893.7 -34995.6 
-37692 -5656.04 -5860.62 -6133.28 -6493.75 -6955.65 -7590.05 -8391.84 -9403.67 
-10618.6 -13135.8 -16469.5 -16191.7 -16369.2 -6379.41 9435.62 -13414.3 -54604.8 
-69157.9 -57335.1 -43316.9 -38525.4 -40446 -45123.7 -50706.8 -56445.9 -63293.3 
-76608.3 -85331.2 -82933.1 -87429.5 -83331.3 -95893.8 -196187 -622784 -2.58964e+06 
-475157 3.93118e+06 2.21988e+06 182110 323546 373618 342686 288643 301604 
369459 414554 419985 377694 280922 153390 78906.5 122112 236250 
350473 426405 464674 480943 488688 509390 603607 764664 635858 
271060 67401.5 -238.307 -24738.3 -32922 -35938.2 -5713.35 -5920.22 -6189.01 
-6540.3 -6994.03 -7577.05 -8348.63 -9186.92 -9896.71 -12310.2 -17888.1 -16718.6 
-13751.4 -2421.15 7353.37 -8650.15 -40744.6 -54001 -50098.9 -42863 -40279.6 
-42194.6 -46439.6 -51536.9 -56678.7 -62320.6 -76830.9 -84581 -82449.4 -89864.8 
-84090 -71478.8 -55556.5 90298.1 1.08499e+06 5.27381e+06 -453260 -6.78102e+06 -1.95803e+06 
33555.4 306644 312713 294099 312139 362685 400006 405229 364070 
264044 126915 49304 100584 223079 342322 420258 459351 476163 
477312 467624 409526 84747.6 -113050 -3288.7 8593 -13839.1 -26762.9 
-32301.3 -34537.8 -5776.04 -5989.13 -6258.69 -6607.5 -7045.4 -7606.41 -8353.43 
-8743.53 -8856.2 -10622.9 -17079.6 -15591.2 -11898.6 -3442.09 -792.965 -12115.1 