# vtk DataFile Version 4.2
vtk output
ASCII
DATASET RECTILINEAR_GRID
FIELD FieldData 6
base_index 1 3 int
6 16 0 
avtOriginalBounds 1 6 double
0.46875 6.5625 0.625 3.359375 0 0 
MeshName 1 1 string
amr_mesh

CYCLE 1 1 int
1280 
TIME 1 1 double
1.9007671087e-05 
VisItExpressions 1 0 string

DIMENSIONS 79 71 1
X_COORDINATES 79 float
0.46875 0.546875 0.625 0.703125 0.78125 0.859375 0.9375 1.01562 1.09375 
1.17188 1.25 1.32812 1.40625 1.48438 1.5625 1.64062 1.71875 1.79688 
1.875 1.95312 2.03125 2.10938 2.1875 2.26562 2.34375 2.42188 2.5 
2.57812 2.65625 2.73438 2.8125 2.89062 2.96875 3.04688 3.125 3.20312 
3.28125 3.35938 3.4375 3.51562 3.59375 3.67188 3.75 3.82812 3.90625 
3.98438 4.0625 4.14062 4.21875 4.29688 4.375 4.45312 4.53125 4.60938 
4.6875 4.76562 4.84375 4.92188 5 5.07812 5.15625 5.23438 5.3125 
5.39062 5.46875 5.54688 5.625 5.70312 5.78125 5.85938 5.9375 6.01562 
6.09375 6.17188 6.25 6.32812 6.40625 6.48438 6.5625 
Y_COORDINATES 71 float
0.625 0.664062 0.703125 0.742188 0.78125 0.820312 0.859375 0.898438 0.9375 
0.976562 1.01562 1.05469 1.09375 1.13281 1.17188 1.21094 1.25 1.28906 
1.32812 1.36719 1.40625 1.44531 1.48438 1.52344 1.5625 1.60156 1.64062 
1.67969 1.71875 1.75781 1.79688 1.83594 1.875 1.91406 1.95312 1.99219 
2.03125 2.07031 2.10938 2.14844 2.1875 2.22656 2.26562 2.30469 2.34375 
2.38281 2.42188 2.46094 2.5 2.53906 2.57812 2.61719 2.65625 2.69531 
2.73438 2.77344 2.8125 2.85156 2.89062 2.92969 2.96875 3.00781 3.04688 
3.08594 3.125 3.16406 3.20312 3.24219 3.28125 3.32031 3.35938 
Z_COORDINATES 1 float
0 
CELL_DATA 5460
SCALARS P float
LOOKUP_TABLE default
-7281.58 -7079.44 -6852.5 -6610.47 -6359.93 -6121.91 -5906.27 -5737.25 -5623.47 
-5570.06 -5575.01 -5616.95 -5685.3 -5698.52 -5565.93 -5144.23 -4424.14 -3855.97 
-3838.38 -4490.04 -5485.03 -6405.36 -7358.21 -8875.84 -11121.9 -13593.1 -15399.1 
-16084.3 -16219.4 -16508.1 -17931.7 -21469.4 -27219.9 -33419.9 -38825.3 -39991.5 
-35972.8 -26045 -9917.55 8818.91 25961.7 37137 42407.2 43331.7 40789 
37319.4 33844.5 32187 32924.6 35117.9 37297.1 35743.5 28922.4 15697.8 
-4694.74 -26357.1 -42479.3 -39686.8 -17742.6 4541.91 17032.5 19004.8 16536.8 
15411.3 15100.5 13739.7 10503.2 6131.94 1554.13 -1808.43 -3782.51 -4554.75 
-4446.51 -4037.09 -3489.56 -3056.61 -2744.2 -2561.35 -7749.88 -7530.31 -7282.33 
-7014.22 -6736.09 -6467.65 -6227.07 -6039.13 -5919.47 -5874.53 -5898.93 -5975.81 
-6094 -6186.51 -6095.71 -5561.85 -4531.84 -3594.38 -3488.51 -4390.44 -5652.65 
-6561.34 -7377.12 -8965.76 -11732 -15019.8 -17158.3 -17659.8 -17296.1 -17074.4 
-18187.4 -22231 -29629.5 -38410.9 -46092.5 -48950.2 -45162.4 -33854.6 -14347.5 
9837.26 31031.9 44036 49323.3 49011.5 45090.8 39910.4 35179.2 32884.6 
34130.2 38207.6 42432.3 42393 35450.5 20186.6 -4932.03 -35690.8 -59164.8 
-55360.5 -22855.3 10825.4 25189.8 23513.7 18370.7 16690.2 17071.2 16056 
12172.6 6477.63 823.174 -3184.55 -5245.81 -5761.74 -5338.36 -4600.33 -3846.26 
-3274.95 -2899.95 -2697.09 -8225.89 -7988.36 -7717.7 -7421.14 -7111.1 -6808.06 
-6536.8 -6326.46 -6199.78 -6165.13 -6213.41 -6328.67 -6512.93 -6725.74 -6740.85 
-6106.78 -4624.69 -3114.38 -2895.15 -4202.62 -5908.07 -6737.38 -7209.34 -8796 
-12265.5 -16907.8 -19519.3 -19516.8 -18520 -17386 -17863.2 -22378.3 -31991.7 
-44168.5 -55118 -60309.5 -57033.7 -44520.7 -20677.3 11028.5 37720.5 52595.4 
57434.7 55524.1 49674.5 42384 35896.6 32672.5 34568.9 41136.2 48488.8 
50636.9 43894.7 26967.5 -3898.71 -46952 -82782.8 -78299.7 -28328.7 21889.9 
37313.3 28896.4 19331.4 17435.7 19372.1 19071.9 14276.5 6799.02 -336.371 
-5063.82 -7110.51 -7216.69 -6320.55 -5177.53 -4167.23 -3452.18 -3019.79 -2807.49 
-8710.54 -8454.73 -8159.8 -7832.18 -7485.4 -7142.27 -6833.47 -6595.62 -6460.26 
-6438.83 -6515.35 -6669.26 -6930.9 -7322.13 -7559.53 -6874.71 -4727.76 -2337.47 
-1925.11 -3930.79 -6391.94 -7008.72 -6786.31 -8207.49 -12611.8 -19549.3 -22875.2 
-21930.8 -19892.9 -17481.1 -16685.5 -21604.9 -34158.9 -50861.8 -66301 -74618.3 
-72191.2 -59156.2 -30249.5 12442.6 46653.6 63331.4 67046.6 62946.1 54589.9 
44659.4 35793.8 31158.9 33771.4 43728.5 55712 60963 54703.3 37077 
47.7618 -60193.2 -116649 -112684 -33899.6 41606.6 55355.7 34551.9 18360.5 
17202.9 22209.9 23192.1 17037.6 7008.79 -2117.21 -7629.94 -9476.44 -8936.54 
-7376.9 -5732.07 -4424.7 -3567.12 -3091.94 -2887.56 -9205.04 -8930.85 -8610.27 
-8248.68 -7860.08 -7469.62 -7114.61 -6841.92 -6695.45 -6691.85 -6802.32 -6988.94 
-7324.29 -7968.07 -8620.54 -8020.68 -4907.25 -1083.4 -370.024 -3567.31 -7346.04 
-7505.48 -5996.52 -6924.5 -12467.2 -23432.8 -27690.1 -25002.9 -21597.2 -17373.1 
-14341.6 -19335.6 -35800.9 -58418.7 -79924.1 -92409.5 -91056.7 -79298.7 -45303.5 
14239.5 58879.6 76808.2 78381 71348.5 59873.1 46679.7 34637 27812.3 
31051.9 45657.8 64484.1 73980.1 68150.5 51899.9 9596.26 -74642.2 -165821 
-165848 -38692.1 76746.7 82010.3 38992.6 13598.7 15404.3 26036.8 29074.6 
20748 6967.26 -4824.12 -11129.8 -12455.3 -10925.5 -8466.75 -6212.08 -4579.74 
-3594.49 -3103.62 -2932.64 -9710.95 -9418.56 -9071.24 -8672.69 -8236.51 -7790 
-7377.55 -7059.56 -6898.27 -6920.31 -7075.16 -7278.54 -7652.25 -8629.27 -10018.4 
-9825.47 -5305.31 895.444 2097.72 -3104.41 -9217.3 -8436.89 -4668.51 -4585.79 
-11193.5 -30005.9 -35443.1 -28810.3 -23831.3 -17249.4 -10242.6 -14659.5 -36469 
-66938.5 -96727.9 -114828 -113763 -107143 -70225.7 16596.1 76019.1 93612.9 
91555 80759.8 65577.4 48442.1 32173.6 21910.5 25369.1 46360 75422.5 
90573.4 83991 73038.4 29278.3 -87655.4 -237988 -250994 -40642.4 139462 
120712 38875.9 1960.85 11408.3 31756.2 37762.7 25792.9 6400.96 -8926.18 
-15893.1 -16165.1 -13161.7 -9518.08 -6545.98 -4582.64 -3506.06 -3042.5 -2939.65 
-10229.9 -9920.01 -9545.34 -9106.95 -8616.96 -8103.9 -7619.38 -7241.02 -7058.62 
-7119.53 -7341.17 -7534.9 -7847.45 -9218.54 -11859.2 -12780.8 -6226.5 3998.17 
5941.43 -2538.85 -12845.2 -10126.3 -2599.42 -590.31 -7330.58 -39270.6 -48651.6 
-33572.2 -26700.7 -17431.1 -3733.25 -6198.02 -35794.4 -76584.1 -117726 -144007 
-139315 -148795 -116623 21937.5 100411 114211 106510 91162 71781.4 
50010 28199.1 12464.2 15101.1 44858.4 89657.4 112332 100739 102056 
66671.5 -92642.7 -344839 -392436 -35086.8 251791 175400 27119.2 -21407.7 
4728.52 41082.1 50886.1 32647.3 4790.92 -15142.7 -22352 -20712.9 -15574 
-10414.5 -6636.65 -4372.95 -3271.83 -2898.06 -2908.46 -10763.7 -10437.8 -10035.8 
-9555.12 -9004.82 -8412.91 -7837.38 -7376.62 -7161.49 -7282.42 -7620.11 -7775.05 
-7809.22 -9549.22 -14226.2 -17767.3 -8329.03 8881.22 12069.8 -1823.5 -19879.6 
-13193.8 439.652 5692.97 2541.16 -53500.6 -66666.8 -36182.3 -30658.9 -18694.2 
7121.37 7493.62 -33584.9 -87293.1 -144184 -182640 -162855 -205791 -196175 
16050.6 134610 138482 122844 102435 78587 51593.8 22672.5 -1818.76 
-2298.42 39445.2 109249 142360 114055 139818 134333 -74796.6 -503370 
-636008 -12104.8 454704 247973 -10351.5 -63743.7 -4430.39 57124.4 70919.7 
41828.2 1181.35 -24560.9 -31050.9 -26158.6 -18008.5 -10978.4 -6356.74 -3880.91 
-2862.97 -2664.52 -2843.52 -11314.5 -10974.8 -10546.5 -10021.9 -9404.98 -8720.35 
-8029.67 -7454.1 -7183.73 -7394.69 -7951.8 -8066.47 -7403.18 -9261.18 -17076.3 
-26410.6 -13062.4 16456.6 20366.8 -1542.17 -33243 -17798.2 3925.92 9000.48 
16373 -42345.5 -46277.2 -29347.8 -39831.6 -24219.7 23732.3 29938.9 -29848.6 
-96277.1 -174637 -229795 -165794 -169693 -160224 65931.8 182826 164813 
139768 114349 86097.4 53671.9 16107.1 -22630 -30993.2 26872.6 137849 
187319 113633 184712 252188 -3990.48 -738039 -1.07262e+06 47754.2 825595 
332090 -100406 -134734 -13958.8 85293.1 101470 53782.4 -6165.49 -38805 
-42630.2 -32447.8 -20181.6 -10953.8 -5547.5 -3031.8 -2256.16 -2343.25 -2755.11 
-11884.4 -11534.3 -11082 -10513.3 -9824.31 -9032.27 -8196.63 -7458.87 -7088.78 
-7424.65 -8402.27 -8592.42 -6490.83 -7812.47 -19474 -38851.4 -21789.4 27422.7 
28221.9 -1907.06 -27488.2 -7998.33 -5970.6 -12193.4 10123.1 -1558.06 -20177.7 
-55361.6 -41353.9 -612.912 47410.6 58338 -23052.1 -102613 -200025 -255660 
-158964 -52819.5 78484.4 183045 228550 188115 155906 126649 94368.4 
57148.4 10075.3 -52076.3 -77559.4 823.827 182012 262321 76766.6 237020 
448294 103241 -904368 -1.43957e+06 466405 1.57409e+06 381654 -294967 -245444 
-17908.9 134348 147803 68615.4 -20337.4 -60258.5 -57755.9 -39294.8 -21614.7 
-9987.49 -4022.16 -1754.42 -1440.61 -1947.76 -2662.48 -12475.7 -12119.9 -11647.7 
-11036.5 -10272.1 -9358.64 -8343.27 -7376 -6821.26 -7298.43 -9066.92 -9766.86 
-4987.36 -3016.8 -10602.2 -25697.7 -20508.4 19038.6 14691 -12702.1 -2755.9 
7072.24 -20031.5 -30155.7 -4976.86 4816.34 -32315.1 -77464 -19402.4 36448.9 
30861.1 28817.2 -12612.6 -97542.9 -210004 -232369 -161818 -35295.9 166142 
228285 239392 203202 170364 139109 103462 63309.7 7100.76 -92889.4 
-152758 -51523.9 250363 401369 -143003 192822 850627 197347 -518614 
-502526 1.57491e+06 1.60585e+06 -484123 -740670 -422845 -3419.37 218206 216918 
85774.1 -46756.1 -92327.7 -76932.4 -45995.1 -21555.4 -7619.18 -1578.18 5.56347 
-426.633 -1507.06 -2593.77 -13090.5 -12735.4 -12249.4 -11600.4 -10760.6 -9715.02 
-8483.38 -7195.81 -6301.54 -6857.65 -10044.5 -12525.7 -4899.1 4839.65 8672.2 
6561.15 -7961.45 -3123.79 -10564.4 -23621.4 -358.942 4196.89 -19592.7 -25683.2 
-10281.5 -11441.3 -39157.6 -53765.5 1028.14 37542.7 -4432.99 -21760.3 -31232.1 
-93425 -196227 -217208 -172650 -152025 36240.9 165327 226904 210018 
183712 151744 113406 73626.3 13420.7 -149855 -274799 -156911 334188 
932259 -232268 -398089 880721 316694 57572.5 636561 1.81317e+06 357391 
-1.76164e+06 -1.1508e+06 -294327 220641 356787 318319 103071 -94956.7 -139664 
-100072 -51130.4 -18890 -3289.05 1974.61 2264.05 742.541 -1071.87 -2589.82 
-13730.7 -13384.5 -12893.7 -12214.9 -11305.1 -10124 -8645.35 -6926.5 -5431.42 
-5784.16 -11299.1 -18061.7 -11350.8 2286.37 12067.7 14216.1 -1729.19 -10121.3 
-16208 -20527.3 -6205.45 -3330.63 -15293 -21254.9 -14797.5 -17553.5 -30408.4 
-33089.4 -846.373 17362.8 -14412.6 -36011.6 -48704.8 -99098.7 -168121 -198317 
-181678 -198812 -5247.43 151621 216955 214758 196808 165297 123987 
88435.1 46205.8 -205050 -454179 -286873 299132 1.75625e+06 756929 -511815 
531172 412387 300067 708798 1.06893e+06 -289490 -1.53855e+06 -168401 1.12922e+06 
901867 544867 463664 115984 -181458 -208133 -125648 -52162.1 -12084 
3615.64 6766.47 4970.24 1977.82 -717.683 -2701.99 -14398.3 -14071.2 -13587.2 
-12891.1 -11923.2 -10616 -8879.49 -6617.9 -4127.88 -3480.29 -12082.7 -24635.7 
-17653.8 -2977.98 4783.91 7593.62 -1530.76 -8050.49 -13006.6 -15354.3 -8679.03 
-7244.33 -13691.2 -17359.7 -15169.8 -17845.5 -24371.5 -22911.2 -3802.8 5274.9 
-14286.1 -33775.6 -52230.1 -96864.7 -153696 -189808 -185309 -131484 65587.9 
184005 215778 221100 210744 181039 134280 103700 129948 -227288 
-848644 -389133 306920 1.78116e+06 1.57091e+06 111778 420366 418850 396631 
608905 697035 -50122.6 -533120 968139 2.14046e+06 1.41162e+06 811651 677899 
116097 -335939 -304049 -149093 -44919.2 790.019 13646 12791.2 7970.55 
3131.35 -548.943 -2993.92 -15094.6 -14799 -14336.7 -13640.4 -12634.2 -11227.6 
-9263.18 -6399.03 -2432.71 817.009 -9961.45 -27648.9 -17529.4 -2560.96 1645.44 
2895.97 -2310.05 -7250.7 -11070.8 -12705.1 -9769.71 -9260.46 -12896.4 -15029.9 
-13669.5 -16091.6 -19991.5 -17706.9 -6363.7 -1969.85 -15232.8 -32829.3 -54845.1 
-97175.1 -152141 -185090 -190200 -93566.9 100547 189146 215449 228887 
227150 201375 141376 103202 307428 -181569 -2.01676e+06 -1.77624e+06 -412887 
853210 1.22982e+06 409934 431865 430146 434623 538566 533672 140637 
4550.77 934898 1.67714e+06 1.23485e+06 925788 927623 93702.5 -612596 -431135 
-159970 -23130.6 21846.3 27089.6 19803.4 10970.2 3986.93 -696.563 -3535.87 
-15820.1 -15570.7 -15148.8 -14474.1 -13456.6 -11996.8 -9902.71 -6523.4 -730.188 
8063.74 -4277.52 -26330.5 -17176.7 -5228.48 -1483.82 -416.158 -3394.91 -6967.75 
-9910.92 -11283.4 -10197.4 -10258 -12435.9 -13856 -13469.2 -15088.9 -17067.8 
-14987 -8268.73 -6508.24 -16593.7 -33061.1 -55863.7 -96892.9 -155312 -197133 
-192187 -86853.4 105003 184827 214181 237568 247459 230346 142733 
41203.7 663547 866550 -1.61056e+06 -1.80904e+06 -336439 326749 822810 489069 
448006 440174 447888 495271 467262 267484 259339 792370 1.19082e+06 
838425 587940 647906 -359909 -1.11899e+06 -581394 -137431 21557.3 52800.1 
43647.5 27198 13501.7 4259.33 -1313.42 -4399.98 -16574.9 -16388.6 -16029.5 
-15402.8 -14405.3 -12951.4 -10911.9 -7395.93 -424.798 15678.3 -1666.55 -35020.4 
-23130.7 -8912.43 -4223.12 -2820.36 -4439.31 -6970.43 -9241.92 -10466.5 -10347.4 
-10713.1 -12135.7 -13160 -13244.7 -14266 -15164.2 -13524.9 -9622.41 -9431.18 
-17887.3 -33922.5 -55751.1 -92994.1 -164883 -223129 -201388 -71241.2 109922 
177189 213557 246201 272725 275413 141571 -226353 1.05298e+06 3.34021e+06 
254806 -1.05624e+06 429834 359190 619109 494593 455819 446394 451354 
470719 443812 346402 378678 681943 874386 572767 13050.8 -248404 
-1.49066e+06 -1.9853e+06 -708919 -43843.1 98089.3 93811 62006.9 33897.2 14912.7 
3605.85 -2559.43 -5651.58 -17357.1 -17253.8 -16984.2 -16436.8 -15490.1 -14096.3 
-12336.1 -9523.27 -4674.5 7011.53 -10575.1 -42231.1 -26801 -11489.2 -6166.86 
-4503.03 -5307.27 -7094.62 -8866.09 -9995.43 -10353.3 -10883.4 -11910.3 -12693.5 
-13011.9 -13520 -13927 -12758.2 -10589 -11320.1 -18968.6 -35350.4 -55719.7 
-81647.7 -183611 -266346 -221320 -71773 94816.7 163801 210482 253963 
302816 348189 170926 -1.05508e+06 -1.08202e+06 2.5646e+06 316139 -2.12822e+06 136818 
337467 510232 478782 456326 449058 451291 457720 437951 392967 
430340 599368 677178 440549 -95143.3 -565792 -2.66053e+06 -2.97803e+06 -617074 
180351 211060 141668 79423.8 38303 14394.9 1659.2 -4581.46 -7332.98 
-18164.5 -18165.8 -18017.7 -17587.8 -16717.4 -15390.8 -14106.7 -12794.4 -8086.48 
-82.0675 -10926.3 -32135.1 -22431.7 -11836.2 -7190.81 -5582.17 -5954.14 -7246.63 
-8662.67 -9710.25 -10298.6 -10908.6 -11718.3 -12357.8 -12689.5 -13016.6 -13156.3 
-12398.3 -11332.8 -12586.2 -19864.6 -37305.9 -57953.8 -64944.5 -141690 -273016 
-291547 -110535 66756.7 149266 204480 259035 333395 463260 468192 
-2.0684e+06 -6.10685e+06 -72847.7 2.77493e+06 -1.14192e+06 56450.7 320165 451817 460635 
453128 449399 450222 451283 438351 418972 449212 539418 557533 
379788 68113.9 -573142 -3.08989e+06 -2.58067e+06 359479 595090 348990 187716 
91551.9 38389.7 11071.1 -1919.45 -7482.71 -9457.44 -18991.7 -19121.9 -19134.2 
-18872 -18102.1 -16742.8 -16014.1 -16909 -8629.79 2675.27 -366.246 -17361.7 
-16301.6 -10780.8 -7459.32 -6174.53 -6382.06 -7374.72 -8550.45 -9528.22 -10220.7 
-10863.4 -11549.2 -12092 -12408.8 -12643.6 -12711.1 -12319 -11992.9 -13510.4 
-20630.9 -39082.9 -67764.5 -54763 -43944.8 -174203 -301221 -121596 46600.4 
133638 196298 258808 350306 598091 1.45485e+06 585466 -6.35194e+06 -708024 
5.5032e+06 611391 244078 335670 423930 446712 448985 448636 449123 
448344 440357 432583 453016 497274 486784 351940 112072 -398846 
-687776 1.6729e+06 2.73353e+06 1.07512e+06 465461 217485 92929.8 31996.5 4148.64 
-7364.07 -11288.8 -11980 -19832.2 -20116.3 -20335.9 -20314.6 -19694 -18083 
-16811.7 -16875.5 -4671.32 5805.83 2093.91 -9716.92 -11632.8 -9240.83 -7231.3 
-6399.53 -6617.05 -7454.28 -8479.09 -9402.27 -10136.5 -10787.1 -11398.4 -11877.1 
-12178.7 -12386.9 -12500 -12464.4 -12707.7 -14337.8 -21218.8 -40980.1 -89338.6 
-92013.2 -27784.6 -90946.6 -200993 -93853 35830.6 118688 185644 251521 
328140 567078 2.68746e+06 7.64278e+06 -2.08317e+06 -5.66795e+06 1.72385e+06 609573 316314 
351631 412042 437790 445540 447675 448355 447205 442300 439139 
450808 468885 446715 349948 216957 204459 2.07142e+06 4.94919e+06 3.70832e+06 
1.0366e+06 491081 216349 78428.2 17311 -6876.97 -14716.5 -15911 -14805.4 
-20675.8 -21138 -21619.6 -21952.1 -21640.6 -19469.8 -15284 -10447.9 3583.36 
8167.44 2106.87 -5678.19 -8259.2 -7668.49 -6725.74 -6367.38 -6695.38 -7477.95 
-8419.49 -9305.39 -10053 -10700.4 -11265.1 -11702.5 -11998.1 -12224.8 -12457 
-12806.2 -13634.9 -15468.1 -21935.5 -45185.7 -114259 -158355 -80049.8 -89071.4 
-133868 -64046.5 28707.5 103848 172772 241933 265082 48997.5 613723 
7.70272e+06 -99703.2 -8.20372e+06 -1.44686e+06 187115 305372 361003 408477 433371 
443464 447075 448045 447000 443794 441973 446976 450498 425173 
356844 291550 430590 1.7055e+06 2.16988e+06 763303 322164 452447 181045 
44718.3 -6627.61 -22010.6 -23742.5 -21117.2 -17752.2 -21510 -22169.2 -22969.6 
-23817.8 -24179.7 -21732.9 -13242.2 -6099.02 3450.5 6062.15 1937.88 -3272.81 
-5830.62 -6239.82 -6091.7 -6166.95 -6654.43 -7448.77 -8356.49 -9222.42 -9973.25 
-10614 -11148.8 -11560.7 -11859.4 -12130.5 -12522.4 -13306.9 -14970.7 -17520.3 
-23102 -46299.6 -107514 -156049 -99509.1 -88781.5 -96868.2 -47774.8 21337.5 
87316.1 157535 244393 261681 -685913 -5.9368e+06 273736 4.36165e+06 -1.47279e+06 
-850766 135156 309826 371295 410280 432526 442947 447116 448228 
447325 444923 443080 443485 439267 414309 362942 315041 349602 
465273 -1.323e+06 -1.72692e+06 276171 520746 108698 -10265.5 -39570.3 -40579.3 
-33871.4 -26517.4 -20589.2 -22319.2 -23183.3 -24345.6 -25898.9 -27653.7 -27566.7 
-18035.4 -6614.88 596.593 3445.41 1612.33 -1780.81 -4054.62 -4999.54 -5418.89 
-5864.78 -6528.19 -7375.18 -8284.04 -9145.54 -9898.39 -10533.2 -11049.1 -11445.8 
-11752.5 -12075.3 -12631.4 -13863.4 -16536.1 -21170.7 -27136 -41920.2 -83219.3 
-117926 -93828.1 -82349.2 -76308.8 -39957.8 11829.7 66871.6 136055 264831 
498566 122218 -6.82332e+06 -1.98422e+06 9.18328e+06 4.07029e+06 378913 281056 343302 
386242 416216 434510 443913 447889 448893 448010 445892 443599 
441116 433171 409991 368158 317763 248268 -131032 -2.0803e+06 -1.70511e+06 
500608 366425 -37982.3 -87657.7 -79615.2 -61105.1 -44176.9 -31571.1 -23006.1 
-23085.5 -24145.6 -25674.6 -28042.4 -31978.2 -40019.3 -32233.6 -6389.24 5960.11 
3352.56 1693.53 -724.162 -2704.68 -3934.3 -4754.94 -5507.66 -6345.3 -7267.93 
-8201.6 -9071.67 -9829.38 -10461.2 -10965.5 -11353.1 -11667.3 -12031.6 -12714.8 
-14318 -18126.3 -25961.5 -30826.8 -38393.1 -66634.6 -91163.4 -84829.9 -75507.4 
-65235.9 -37913.7 -287.547 40440.2 97802.2 258839 885415 3.25676e+06 1.38265e+06 
-1.38988e+06 3.33431e+06 3.04716e+06 702799 387575 380799 403952 424771 438590 
446139 449362 450002 448984 446880 444136 440078 430834 410287 
375471 325352 223776 -153384 -1.3155e+06 -1.01911e+06 -178248 -402041 -271260 
-179859 -122290 -81259.5 -53418.9 -35625 -24682.9 -23792.8 -25018 -26854.8 
-29938.3 -36233.9 -54609.2 -53740.4 -11063.5 10068.7 3263.99 1799.66 105.212 
-1623.16 -3011.38 -4122.11 -5127.34 -6128.91 -7138.33 -8112.01 -9000.69 -9767.5 
-10399.9 -10898 -11279.6 -11596.5 -11979.6 -12714.5 -14463.5 -18751.6 -28728 
-35610.2 -39370.6 -59032.7 -76565.3 -75924.2 -69658.9 -59486 -39411.1 -14424.1 
7907.56 31874.6 135615 823759 5.05768e+06 7.0306e+06 -2.83867e+06 -5.07168e+06 340802 
502165 418132 409990 421789 434784 444096 449342 451428 451488 
450206 447998 444969 440302 431279 414110 386594 345735 268298 
80967.9 -105472 512416 58546.6 -830748 -469021 -264060 -160891 -98159.6 
-60168.2 -37977.7 -25284 -24427.8 -25770.2 -27794.3 -31210.5 -38140.8 -57012 
-65043.3 -29888.2 75.807 1626.46 1889.93 843.536 -699.941 -2195.85 -3528.93 
-4745.09 -5897.4 -6997.32 -8019.91 -8934.43 -9714.54 -10351.1 -10847 -11224.1 
-11537.5 -11913 -12612.8 -14215.9 -17852.2 -28147.3 -40078.8 -43010.4 -56678.7 
-68364.9 -69459.6 -65213.7 -56693.1 -42746.9 -28628.2 -26477 -56355.8 -135070 
-138705 1.5719e+06 4.1382e+06 -1.79629e+06 -4.93451e+06 -459802 359086 427741 433285 
438869 445439 450470 453223 453943 453269 451632 449289 446178 
441580 433719 420480 401032 375236 340246 315728 580655 1.59741e+06 
940524 -546290 -532676 -323099 -189603 -108919 -62988.7 -37968.3 -24540.9 
-24983.8 -26388.9 -28465.4 -31787.5 -37554.9 -48320.4 -58628.1 -39863.8 -11504.9 
363.965 2254.74 1605.06 141.636 -1458.73 -2978.14 -4375.7 -5665.58 -6855.09 
-7930.95 -8875.95 -9672.86 -10316.9 -10813.7 -11187.7 -11492.8 -11841.5 -12449.4 
-13706.8 -16080.9 -25753.3 -45823.3 -47289.1 -55833.1 -63407.9 -64852.1 -62049.2 
-55582.3 -46367.5 -40238.2 -53924.8 -134075 -426219 -1.44942e+06 -3.83285e+06 254381 
3.17991e+06 44701.7 46514.6 385961 451395 455593 455267 456218 457259 
457499 456744 455247 453204 450740 447725 443637 437464 428367 
417038 407000 409558 477480 829765 1.73519e+06 1.2942e+06 -179703 -552324 
-364476 -205436 -111032 -60605.5 -35073.7 -22279.8 -25460.5 -26880.8 -28912.3 
-31958.3 -36568.8 -43541.3 -46891.7 -32990.3 -9947.08 2044.93 3182.47 2465.46 
943.866 -781.569 -2471.65 -4030.47 -5445.72 -6721.03 -7851.11 -8828.99 -9645.21 
-10299.4 -10800 -11172.7 -11468.6 -11784.8 -12291.2 -13218.4 -14350.7 -21815 
-45700.4 -51591.8 -55003 -60200.9 -61600.5 -59897.1 -55288.4 -49212.7 -47049 
-65454.7 -159622 -536608 -1.99539e+06 -5.38887e+06 -608164 5.30725e+06 2.25669e+06 603550 
489367 487155 478017 470948 466734 464096 461912 459669 457314 
454850 452293 449506 446182 441904 436775 432694 435583 462525 
568039 907839 1.67962e+06 1.63389e+06 252447 -561723 -394539 -206062 -102204 
-52022 -29008.2 -18478.2 -25861.8 -27264.7 -29199 -31938.1 -35800.4 -41020.3 
-50074.9 -34346.5 -510.639 6766.71 4372.02 3388.67 1716 -157.303 -2013.28 
-3719.25 -5248.46 -6603.77 -7786.43 -8797.68 -9634.67 -10301.2 -10808.5 -11182.6 
-11471.6 -11762.6 -12198.4 -12984.8 -14145.9 -19015.4 -37596.7 -52353.3 -53383.7 
-57712.2 -59221.1 -58475 -55305 -50898.7 -48700.8 -58370.5 -115206 -379153 
-1.61561e+06 -4.12349e+06 -487035 4.13808e+06 2.15179e+06 810884 565082 521730 499294 
485526 476638 470669 466230 462557 459364 456490 453870 451388 
448930 446520 444885 446578 458137 495793 600179 860890 1.41462e+06 
1.41409e+06 -357.292 -823127 -435941 -188011 -79985.5 -36670 -19834.9 -13327.3 
-26199 -27561.8 -29376.7 -31828.2 -35294.6 -41108.8 -53584.2 -34184.5 8925.26 
6973.05 4974.43 4189.88 2455.69 410.501 -1609.9 -3451.64 -5083.37 -6511.16 
-7742.7 -8786.14 -9644.3 -10324.8 -10841.3 -11220.5 -11507.9 -11784.6 -12182.9 
-12959.2 -15212.2 -23693.3 -37460.6 -50035.1 -51701.8 -55719.8 -57539.5 -57580.3 
-55437.9 -51741.6 -47135.6 -39916.8 -18819.3 19958.4 -313458 -1.94086e+06 -667246 
1.97282e+06 1.35905e+06 740032 590610 547881 517747 498535 485618 476717 
470251 465265 461289 458035 455379 453231 451634 450908 452129 
457959 474127 512238 593082 735306 864832 -190574 -1.72153e+06 -1.40335e+06 
-441403 -135074 -41597.5 -14716.1 -8093.35 -7222.42 -26477.1 -27795.1 -29485 
-31668.3 -34512.8 -38574.5 -45839.1 -24526 524.839 -2148.85 4473.43 4885.16 
3152.14 916.832 -1271.34 -3237.57 -4959.29 -6450.31 -7725.22 -8798.23 -9677 
-10372.6 -10900.9 -11289.3 -11581.9 -11853 -12229.3 -12924.3 -15330.8 -28603.2 
-43624 -49832.3 -49960.7 -53909.4 -56360.4 -57080.7 -55675.7 -52459.7 -45968.7 
-24596.1 72730.7 499242 2.11551e+06 2.13279e+06 -1.71274e+06 -2.1402e+06 170016 552295 
589563 564888 532800 509661 493416 482021 473801 467661 462991 
459405 456731 454907 454088 454779 458186 466715 484574 517953 
570674 612155 390500 -1.50107e+06 -2.8821e+06 -1.56064e+06 -287406 -29022.3 13419.6 
12280.2 5071.93 -831.249 -26712.7 -27982 -29563.8 -31494.1 -33734 -36105.8 
-35754.5 -17957.5 -10887 -9314.04 4238.76 5713.9 3843.88 1345.99 -1011.02 
-3087.35 -4884.32 -6427.46 -7738.64 -8837.34 -9735.29 -10446.4 -10988.8 -11390.9 
-11696.3 -11973.8 -12341.7 -12902.2 -13311.1 -24562.6 -49064.9 -55674.9 -47692.8 
-52645.4 -55542.9 -56899.4 -56050.6 -53608 -48209.5 -27929.5 82254.9 658192 
3.93839e+06 5.85952e+06 -2.28556e+06 -5.31156e+06 -462970 493075 603910 579278 545161 
518793 499840 486405 476738 469636 464385 460522 457843 456304 
456135 457940 462928 473091 491082 518767 551079 553883 413824 
-316454 -822674 -322469 120885 130936 79320.2 40766.6 17895.1 5040.31 
-26905.4 -28142 -29638.1 -31382.4 -33248.2 -34595.7 -32696.2 -24019.9 -21528.7 
-11736.9 6076.28 7255.58 4528.9 1667.89 -845.86 -3011.38 -4865.54 -6447.74 
-7786.69 -8906.19 -9821.13 -10547.8 -11106.2 -11526 -11852.1 -12154.6 -12546.6 
-13139.5 -13482.1 -20647.9 -53443.1 -65649.6 -47121.1 -51203.9 -55544.1 -56947.9 
-56488.5 -55090 -53780.3 -52614.7 -30614.7 119097 1.56183e+06 3.88986e+06 -98770.9 
-2.1269e+06 251287 651662 642996 595317 555239 525828 504737 489726 
478946 471099 465398 461324 458647 457334 457662 460280 466343 
477462 495108 518441 538482 529693 497924 1.03294e+06 1.77697e+06 1.4455e+06 
664983 306344 141884 65308.7 28198.1 9469.03 -27071.7 -28283.3 -29733.2 
-31373.8 -33075.7 -34157.4 -33483 -35043.4 -33265.7 -8905.73 14468.4 9368.72 
5042.12 1835.36 -795.719 -3019.19 -4908.52 -6514.93 -7872.07 -9006.64 -9935.75 
-10677.5 -11253.3 -11694.6 -12048.2 -12391.3 -12824.1 -13627.3 -14811.7 -21618.8 
-51762.3 -61049.3 -44252.6 -51792.8 -56091.8 -57122.6 -56753.5 -56104.3 -59255.2 
-80719.5 -185840 -750765 -3.85349e+06 -2.82275e+06 4.2595e+06 5.64927e+06 1.68366e+06 886698 
688026 608930 562372 530559 507970 491877 480336 471983 465977 
461762 459091 457936 458594 461733 468461 480157 497658 518846 
532870 508298 345828 776438 2.45411e+06 2.62031e+06 1.10276e+06 431340 182393 
79959.3 33887.7 11690.7 -27205.1 -28416.1 -29857.6 -31491.5 -33170.3 -34300 
-33851.4 -36664.4 -36816.5 -7383.37 17137.8 9978.47 5075.18 1786.34 -876.74 
-3117.38 -5016.72 -6631.2 -7996.14 -9139.53 -10079.6 -10835.4 -11429.7 -11895.4 
-12281.2 -12667 -13165.4 -14076.8 -15585.5 -22210.4 -49990 -60081.3 -47236.6 
-54734 -57003 -57512.6 -56674.5 -55803.7 -59719 -87087.1 -227132 -984021 
-5.33847e+06 -4.51348e+06 5.57895e+06 7.84595e+06 2.07746e+06 956353 702415 614296 565591 
532746 509430 492784 480853 472242 466085 461804 459141 458070 
458888 462266 469306 481360 499231 520916 536596 518378 362707 
882131 2.76772e+06 2.89177e+06 1.1737e+06 449057 186256 80493.1 33592.2 11210.4 
-27315.7 -28538 -30014.1 -31718.9 -33524.8 -34892.6 -33579.1 -29852.5 -31007.5 
-11698.2 8948.45 8182.31 4568.52 1500.81 -1096.3 -3307.14 -5190.88 -6796.88 
-8158.98 -9304.69 -10252.1 -11020.8 -11634.1 -12126.5 -12548.1 -12980.6 -13538.1 
-14409.1 -15432.2 -22641.5 -55334.1 -69088 -53865.2 -56904.9 -58297.5 -58060.2 
-56199.5 -53917.1 -53991.8 -64445.3 -114704 -326047 -1.20828e+06 497182 2.10311e+06 
1.98238e+06 1.02194e+06 796661 675256 609661 564531 532282 509060 492407 
480469 471858 465708 461439 458786 457720 458526 461863 468869 
481074 499802 524373 548415 559544 602570 1.57446e+06 2.74192e+06 2.09799e+06 
822778 346785 150786 66285 27149.7 7988.09 -27390.8 -28647.8 -30191.4 
-32044.2 -34192.6 -36216.9 -34396.4 -19628.6 -16483.4 -8156.8 4768.32 5983.49 
3775.64 1029.14 -1441.86 -3585.38 -5428.99 -7010.46 -8359.28 -9500.85 -10452.1 
-11232.1 -11864.6 -12385.1 -12845.7 -13328 -13958.4 -14858.4 -15574.5 -24285.9 
-52516.7 -66937.4 -56264 -58782.5 -59857.5 -58807.7 -55519.7 -51154.6 -45552.6 
-30596.4 40535.7 460576 3.16373e+06 5.27228e+06 -1.75535e+06 -4.37819e+06 -245991 583228 
633200 599409 559787 529232 506865 490751 479190 470837 464852 
460670 458030 456895 457516 460524 467111 479132 498861 527827 
563167 589517 588315 475202 251569 215341 244917 165821 87153.6 
40707.5 15695.7 2449.2 -27436.7 -28732 -30373.3 -32445.2 -35057.3 -38610.5 
-41990 -21962.9 -3062.95 -2769.54 4247.44 4739.64 2856.63 418.872 -1895.71 
-3944.37 -5726.56 -7268.64 -8594.4 -9725.8 -10677.5 -11467.3 -12118.7 -12668.2 
-13170.1 -13711.2 -14434.4 -15564.5 -17591.8 -29678.3 -49560.3 -58791.8 -56301.9 
-62000.5 -62023.2 -59953.2 -54928.5 -48445.5 -38860.9 -11834.3 106093 667041 
3.31784e+06 4.04896e+06 -3.00262e+06 -4.58155e+06 -328609 540878 607337 588932 552052 
523716 502897 487857 477050 469208 463543 459522 456900 455628 
455900 458278 463983 475234 495545 529634 579992 623811 475767 
-1.13657e+06 -2.55199e+06 -1.48882e+06 -261398 -16596.5 15247.5 9738.01 1282.43 -4657.18 
-27435.5 -28780.5 -30534.2 -32861.6 -36073.4 -40997.3 -53447.5 -31559.2 6099.57 
6617.97 5026.51 3889.13 1933.68 -291.016 -2440.32 -4374.28 -6077.14 -7566.62 
-8860.54 -9976.38 -10925.5 -11723.6 -12393.4 -12972.1 -13516.3 -14121.3 -14937.9 
-16290.5 -19229.1 -28838.7 -44159.5 -56696.2 -59469.3 -65064.1 -65256.2 -61733.1 
-54592.9 -46356.8 -36483.6 -15424.3 59440.9 323571 940620 -172053 -1.70913e+06 
-324315 771244 683040 601908 574837 541256 515834 497258 483810 
474119 467029 461825 458036 455438 453972 453750 455198 459463 
469032 488714 527329 598410 704334 740812 -558908 -2.23813e+06 -1.70358e+06 
-502602 -145974 -47388.1 -20528.3 -13777 -12380.6 -27388 -28772.4 -30645 
-33225.9 -36856.4 -42687.4 -56516.1 -39974.8 -434.148 8091.93 4296.71 2850.2 
962.866 -1079.57 -3060.91 -4864.77 -6472.95 -7898.29 -9152.91 -10248.8 -11192.8 
-11998 -12685.4 -13292.7 -13879.1 -14546 -15451.1 -16856.7 -19182.3 -24725.3 
-42176.9 -58685.8 -62944 -69407.4 -69961.2 -64488.3 -54570.9 -44671.6 -36930.5 
-32243.2 -36677.8 -115467 -766469 -2.53975e+06 -307884 3.10439e+06 1.88614e+06 811509 
593620 555099 526817 505674 490095 478735 470498 464377 459763 
456265 453702 452010 451184 451417 453607 460260 477122 516882 
608020 802016 1.15589e+06 890147 -557068 -1.11051e+06 -515494 -212022 -92138.7 
-45793.5 -27513.6 -19854.3 -27276.6 -28691.2 -30668.5 -33533.3 -37606.4 -42759.3 
-49372.3 -37965.4 -12675.7 1846.53 2638.07 1610.08 -71.5815 -1934.85 -3745.43 
-5405.47 -6905.17 -8256.51 -9465.9 -10538.5 -11475.9 -12287.2 -12991.4 -13625.8 
-14252.1 -14978.3 -15972.7 -17465.7 -19339.7 -24242.8 -46749.1 -61137.9 -66406.8 
-74709.8 -76991.2 -68744.6 -54832.8 -42630.9 -36788.5 -47314.8 -115206 -416287 
-1.65289e+06 -4.31059e+06 285390 5.33668e+06 2.57191e+06 733749 542742 526980 509001 
493473 481617 472809 466324 461355 457435 454276 451760 449836 
448357 447149 446617 448917 459820 493600 591686 859406 1.38466e+06 
1.41179e+06 247639 -585097 -438100 -232486 -118568 -64065.8 -38609.8 -26342 
-27098.5 -28513.6 -30565.8 -33732 -38831.7 -46917.1 -56567.8 -40973.6 -16090 
-1390.17 1051.85 381.9 -1145.62 -2850.81 -4484.82 -5986.2 -7364.2 -8633.28 
-9793.36 -10841.1 -11771 -12588.1 -13308.2 -13967.4 -14629.3 -15412.2 -16511.6 
-18224.2 -20489.6 -28921.7 -52872 -60059.1 -68077.4 -82338.6 -87930.5 -75323 
-55368 -39440.7 -32953.8 -48908.2 -137307 -484153 -1.82487e+06 -5.33864e+06 -241843 
5.17388e+06 1.70618e+06 337046 454177 494674 489268 479667 472097 466251 