# vtk DataFile Version 4.2
vtk output
ASCII
DATASET RECTILINEAR_GRID
FIELD FieldData 6
base_index 1 3 int
0 56 0 
avtOriginalBounds 1 6 double
0 20 17.5 20 0 0 
MeshName 1 1 string
amr_mesh

CYCLE 1 1 int
1280 
TIME 1 1 double
1.9007671087e-05 
VisItExpressions 1 0 string

DIMENSIONS 33 9 1
X_COORDINATES 33 float
0 0.625 1.25 1.875 2.5 3.125 3.75 4.375 5 
5.625 6.25 6.875 7.5 8.125 8.75 9.375 10 10.625 
11.25 11.875 12.5 13.125 13.75 14.375 15 15.625 16.25 
16.875 17.5 18.125 18.75 19.375 20 
Y_COORDINATES 9 float
17.5 17.8125 18.125 18.4375 18.75 19.0625 19.375 19.6875 20 

Z_COORDINATES 1 float
0 
CELL_DATA 256
SCALARS P float
LOOKUP_TABLE default
-24.3571 -17.1132 -9.31347 1.71113 14.9466 28.8517 43.3283 57.4181 71.0551 
83.1281 93.5166 101.806 107.994 112.206 114.473 115.224 114.574 113.394 
111.766 110.069 108.392 107.191 106.499 106.177 106.3 107.118 108.744 
111.428 115.14 118.803 121.799 122.94 -16.7991 -11.7598 -4.61221 4.97016 
16.1317 27.9942 40.2149 52.1896 63.6525 73.9381 82.7696 89.8479 95.1387 
98.7291 100.702 101.319 100.826 99.7715 98.3618 96.8465 95.404 94.3154 
93.644 93.2978 93.3788 94.0697 95.5567 98.0408 101.397 104.822 107.512 
108.642 -11.0684 -7.3742 -1.24167 6.85177 16.1136 25.9841 36.0933 46.0327 
55.504 64.0577 71.3997 77.3079 81.7336 84.7297 86.3859 86.8937 86.5097 
85.6018 84.3948 83.0881 81.8673 80.9133 80.2907 79.9517 79.9979 80.5728 
81.8842 84.1123 87.0974 90.1856 92.5995 93.6754 -6.8885 -4.14703 0.856793 
7.44564 14.9138 22.8655 30.9814 38.9782 46.5856 53.4756 59.3913 64.1711 
67.7599 70.1832 71.5227 71.934 71.6371 70.8851 69.8824 68.8005 67.7996 
66.9963 66.4481 66.1412 66.1639 66.6286 67.7379 69.6546 72.2173 74.8825 
76.9695 77.9336 -4.23778 -2.12759 1.71334 6.77019 12.5128 18.6116 24.8287 
30.9606 36.7895 42.0727 46.6162 50.3013 53.0771 54.9513 55.992 56.3256 
56.1161 55.5403 54.7622 53.9256 53.1488 52.5119 52.0592 51.8089 51.8226 
52.1978 53.0944 54.6209 56.6319 58.7138 60.3626 61.1216 -2.36357 -0.930051 
1.77752 5.35138 9.41505 13.7273 18.1218 22.4582 26.5781 30.3136 33.5305 
36.1466 38.12 39.4528 40.1958 40.4406 40.2994 39.892 39.3378 38.743 
38.1886 37.728 37.3941 37.2098 37.2177 37.4927 38.1537 39.2694 40.725 
42.2262 43.4136 43.983 -1.19085 -0.352 1.25005 3.37284 5.79325 8.36329 
10.9831 13.5678 16.0225 18.249 20.1688 21.7322 22.9133 23.7127 24.1611 
24.313 24.2337 23.9939 23.6653 23.3114 22.9799 22.7025 22.4998 22.3883 
22.3944 22.5658 22.9715 23.6451 24.515 25.4075 26.1124 26.4619 -0.363359 
-0.087501 0.441625 1.14475 1.9482 2.80212 3.67282 4.53167 5.34717 6.08706 
6.72545 7.24569 7.63907 7.90579 8.05605 8.10777 8.08259 8.00383 7.89529 
7.77809 7.66803 7.57566 7.50799 7.47096 7.47361 7.53213 7.66877 7.89329 
8.18149 8.47633 8.70908 8.82657 
FIELD FieldData 1
avtGhostZones 1 256 unsigned_char
0 0 0 0 0 0 0 0 0 
0 0 0 0 0 0 0 0 0 
0 0 0 0 0 0 0 0 0 
0 0 0 0 0 0 0 0 0 
0 0 0 0 0 0 0 0 0 
0 0 0 0 0 0 0 0 0 
0 0 0 0 0 0 0 0 0 
0 0 0 0 0 0 0 0 0 
0 0 0 0 0 0 0 0 0 
0 0 0 0 0 0 0 0 0 
0 0 0 0 0 0 0 0 0 
0 0 0 0 0 0 0 0 0 
0 0 0 0 0 0 0 0 0 
0 0 0 0 0 0 0 0 0 
0 0 8 8 8 8 8 8 8 
8 8 8 8 8 8 8 8 8 
8 8 8 8 8 8 8 8 8 
8 8 8 8 8 8 8 8 8 
8 8 8 8 8 8 8 8 8 
8 8 8 8 8 8 8 8 8 
8 8 8 8 8 8 8 8 8 
8 8 8 8 8 8 8 8 8 
8 8 8 8 8 8 8 8 8 
8 8 8 8 8 8 8 8 8 
8 8 8 8 8 8 8 8 8 
8 8 8 8 8 8 8 8 8 
8 8 8 8 8 8 8 8 8 
8 8 8 8 8 8 8 8 8 
8 8 8 8 
